;
;   File g5.5Ncore_cooh_petim.itp  was generated
;   By user: sairam (1000)
;   On host: sairam
;   At date: Fri. April  5 09:56:04 2024
;
;   This is a standalone topology file
;
;   Created by:
;   ParmEd:       amb2gro_top_gro.py, VERSION 3.4.1
;   Executable:   amb2gro_top_gro.py
;   Library dir:  /usr/local/gromacs/share/gromacs/top
;   Command line:
;     ./amb2gro_top_gro.py -p g5.5Ncore_cooh_petim.prmtop -c g5.5Ncore_cooh_petim.inpcrd -t g5.5Ncore_cooh_petim.itp -g g5.5Ncore_cooh_petim.gro -b g5.5Ncore_cooh_petim.pdb
;

;[ defaults ]
;; nbfunc        comb-rule       gen-pairs       fudgeLJ fudgeQQ
;1               2               yes             0.5          0.83333333  
;
;[ atomtypes ]
;; name    at.num    mass    charge ptype  sigma      epsilon
;n3             7  14.010000  0.00000000  A     0.32499985        0.71128
;c3             6  12.010000  0.00000000  A     0.33996695      0.4577296
;h1             1   1.008000  0.00000000  A      0.2471353      0.0656888
;hc             1   1.008000  0.00000000  A     0.26495328      0.0656888
;os             8  16.000000  0.00000000  A     0.30000123        0.71128
;c              6  12.010000  0.00000000  A     0.33996695       0.359824
;o              8  16.000000  0.00000000  A     0.29599219        0.87864
;oh             8  16.000000  0.00000000  A     0.30664734      0.8803136
;ho             1   1.008000  0.00000000  A              0              0


[ moleculetype ]
; Name            nrexcl
g5.5Ncore_cooh_petim          3

[ atoms ]
;   nr       type  resnr residue  atom   cgnr    charge       mass  typeB    chargeB      massB
; residue    1 aaa rtp aaa q 0.0
    1         n3      1    aaa     N1      1 -0.65416500  14.010000   ; qtot -0.654165
    2         c3      1    aaa     C1      2 0.05178400  12.010000   ; qtot -0.602381
    3         h1      1    aaa     H1      3 0.06475500   1.008000   ; qtot -0.537626
    4         h1      1    aaa     H2      4 0.06475500   1.008000   ; qtot -0.472871
    5         c3      1    aaa     C2      5 0.05178400  12.010000   ; qtot -0.421087
    6         h1      1    aaa     H3      6 0.06475500   1.008000   ; qtot -0.356332
    7         h1      1    aaa     H4      7 0.06475500   1.008000   ; qtot -0.291577
    8         c3      1    aaa     C3      8 0.05178400  12.010000   ; qtot -0.239793
    9         h1      1    aaa     H5      9 0.06475500   1.008000   ; qtot -0.175038
   10         h1      1    aaa     H6     10 0.06475500   1.008000   ; qtot -0.110283
   11         c3      1    aaa     C4     11 0.07871100  12.010000   ; qtot -0.031572
   12         hc      1    aaa     H7     12 0.08683700   1.008000   ; qtot 0.055265
   13         hc      1    aaa     H8     13 0.08683700   1.008000   ; qtot 0.142102
   14         c3      1    aaa     C5     14 0.07871100  12.010000   ; qtot 0.220813
   15         hc      1    aaa     H9     15 0.08683700   1.008000   ; qtot 0.307650
   16         hc      1    aaa    H10     16 0.08683700   1.008000   ; qtot 0.394487
   17         c3      1    aaa     C6     17 0.07871100  12.010000   ; qtot 0.473198
   18         hc      1    aaa    H11     18 0.08683700   1.008000   ; qtot 0.560035
   19         hc      1    aaa    H12     19 0.08683700   1.008000   ; qtot 0.646872
   20         c3      1    aaa     C7     20 -0.74941200  12.010000   ; qtot -0.102540
   21         h1      1    aaa    H13     21 0.26689400   1.008000   ; qtot 0.164354
   22         h1      1    aaa    H14     22 0.26689400   1.008000   ; qtot 0.431248
   23         c3      1    aaa     C8     23 -0.74941200  12.010000   ; qtot -0.318164
   24         h1      1    aaa    H15     24 0.26689400   1.008000   ; qtot -0.051270
   25         h1      1    aaa    H16     25 0.26689400   1.008000   ; qtot 0.215624
   26         c3      1    aaa     C9     26 -0.74941200  12.010000   ; qtot -0.533788
   27         h1      1    aaa    H17     27 0.26689400   1.008000   ; qtot -0.266894
   28         h1      1    aaa    H18     28 0.26689400   1.008000   ; qtot 0.000000
; residue    2 bbb rtp bbb q -0.0
   29         n3      2    bbb     N1     29 -0.59685800  14.010000   ; qtot -0.596858
   30         c3      2    bbb     C1     30 0.10137000  12.010000   ; qtot -0.495488
   31         h1      2    bbb     H1     31 0.04411300   1.008000   ; qtot -0.451375
   32         h1      2    bbb     H2     32 0.04411300   1.008000   ; qtot -0.407262
   33         c3      2    bbb     C2     33 0.10137000  12.010000   ; qtot -0.305892
   34         h1      2    bbb     H3     34 0.04411300   1.008000   ; qtot -0.261779
   35         h1      2    bbb     H4     35 0.04411300   1.008000   ; qtot -0.217666
   36         c3      2    bbb     C3     36 -0.00195300  12.010000   ; qtot -0.219619
   37         h1      2    bbb     H5     37 0.05064400   1.008000   ; qtot -0.168975
   38         h1      2    bbb     H6     38 0.05064400   1.008000   ; qtot -0.118331
   39         c3      2    bbb     C4     39 -0.01612100  12.010000   ; qtot -0.134452
   40         hc      2    bbb     H7     40 0.04936100   1.008000   ; qtot -0.085091
   41         hc      2    bbb     H8     41 0.04936100   1.008000   ; qtot -0.035730
   42         c3      2    bbb     C5     42 0.11363000  12.010000   ; qtot 0.077900
   43         hc      2    bbb     H9     43 0.06265900   1.008000   ; qtot 0.140559
   44         hc      2    bbb    H10     44 0.06265900   1.008000   ; qtot 0.203218
   45         c3      2    bbb     C6     45 0.11363000  12.010000   ; qtot 0.316848
   46         hc      2    bbb    H11     46 0.06265900   1.008000   ; qtot 0.379507
   47         hc      2    bbb    H12     47 0.06265900   1.008000   ; qtot 0.442166
   48         c3      2    bbb     C7     48 0.05858200  12.010000   ; qtot 0.500748
   49         h1      2    bbb    H13     49 0.06123400   1.008000   ; qtot 0.561982
   50         h1      2    bbb    H14     50 0.06123400   1.008000   ; qtot 0.623216
   51         c3      2    bbb     C8     51 -0.72423400  12.010000   ; qtot -0.101018
   52         h1      2    bbb    H15     52 0.25637600   1.008000   ; qtot 0.155358
   53         h1      2    bbb    H16     53 0.25637600   1.008000   ; qtot 0.411734
   54         c3      2    bbb     C9     54 -0.72423400  12.010000   ; qtot -0.312500
   55         h1      2    bbb    H17     55 0.25637600   1.008000   ; qtot -0.056124
   56         h1      2    bbb    H18     56 0.25637600   1.008000   ; qtot 0.200252
   57         os      2    bbb     O1     57 -0.20025300  16.000000   ; qtot -0.000001
; residue    3 bbb rtp bbb q -0.0
   58         n3      3    bbb     N1     58 -0.59685800  14.010000   ; qtot -0.596859
   59         c3      3    bbb     C1     59 0.10137000  12.010000   ; qtot -0.495489
   60         h1      3    bbb     H1     60 0.04411300   1.008000   ; qtot -0.451376
   61         h1      3    bbb     H2     61 0.04411300   1.008000   ; qtot -0.407263
   62         c3      3    bbb     C2     62 0.10137000  12.010000   ; qtot -0.305893
   63         h1      3    bbb     H3     63 0.04411300   1.008000   ; qtot -0.261780
   64         h1      3    bbb     H4     64 0.04411300   1.008000   ; qtot -0.217667
   65         c3      3    bbb     C3     65 -0.00195300  12.010000   ; qtot -0.219620
   66         h1      3    bbb     H5     66 0.05064400   1.008000   ; qtot -0.168976
   67         h1      3    bbb     H6     67 0.05064400   1.008000   ; qtot -0.118332
   68         c3      3    bbb     C4     68 -0.01612100  12.010000   ; qtot -0.134453
   69         hc      3    bbb     H7     69 0.04936100   1.008000   ; qtot -0.085092
   70         hc      3    bbb     H8     70 0.04936100   1.008000   ; qtot -0.035731
   71         c3      3    bbb     C5     71 0.11363000  12.010000   ; qtot 0.077899
   72         hc      3    bbb     H9     72 0.06265900   1.008000   ; qtot 0.140558
   73         hc      3    bbb    H10     73 0.06265900   1.008000   ; qtot 0.203217
   74         c3      3    bbb     C6     74 0.11363000  12.010000   ; qtot 0.316847
   75         hc      3    bbb    H11     75 0.06265900   1.008000   ; qtot 0.379506
   76         hc      3    bbb    H12     76 0.06265900   1.008000   ; qtot 0.442165
   77         c3      3    bbb     C7     77 0.05858200  12.010000   ; qtot 0.500747
   78         h1      3    bbb    H13     78 0.06123400   1.008000   ; qtot 0.561981
   79         h1      3    bbb    H14     79 0.06123400   1.008000   ; qtot 0.623215
   80         c3      3    bbb     C8     80 -0.72423400  12.010000   ; qtot -0.101019
   81         h1      3    bbb    H15     81 0.25637600   1.008000   ; qtot 0.155357
   82         h1      3    bbb    H16     82 0.25637600   1.008000   ; qtot 0.411733
   83         c3      3    bbb     C9     83 -0.72423400  12.010000   ; qtot -0.312501
   84         h1      3    bbb    H17     84 0.25637600   1.008000   ; qtot -0.056125
   85         h1      3    bbb    H18     85 0.25637600   1.008000   ; qtot 0.200251
   86         os      3    bbb     O1     86 -0.20025300  16.000000   ; qtot -0.000002
; residue    4 bbb rtp bbb q -0.0
   87         n3      4    bbb     N1     87 -0.59685800  14.010000   ; qtot -0.596860
   88         c3      4    bbb     C1     88 0.10137000  12.010000   ; qtot -0.495490
   89         h1      4    bbb     H1     89 0.04411300   1.008000   ; qtot -0.451377
   90         h1      4    bbb     H2     90 0.04411300   1.008000   ; qtot -0.407264
   91         c3      4    bbb     C2     91 0.10137000  12.010000   ; qtot -0.305894
   92         h1      4    bbb     H3     92 0.04411300   1.008000   ; qtot -0.261781
   93         h1      4    bbb     H4     93 0.04411300   1.008000   ; qtot -0.217668
   94         c3      4    bbb     C3     94 -0.00195300  12.010000   ; qtot -0.219621
   95         h1      4    bbb     H5     95 0.05064400   1.008000   ; qtot -0.168977
   96         h1      4    bbb     H6     96 0.05064400   1.008000   ; qtot -0.118333
   97         c3      4    bbb     C4     97 -0.01612100  12.010000   ; qtot -0.134454
   98         hc      4    bbb     H7     98 0.04936100   1.008000   ; qtot -0.085093
   99         hc      4    bbb     H8     99 0.04936100   1.008000   ; qtot -0.035732
  100         c3      4    bbb     C5    100 0.11363000  12.010000   ; qtot 0.077898
  101         hc      4    bbb     H9    101 0.06265900   1.008000   ; qtot 0.140557
  102         hc      4    bbb    H10    102 0.06265900   1.008000   ; qtot 0.203216
  103         c3      4    bbb     C6    103 0.11363000  12.010000   ; qtot 0.316846
  104         hc      4    bbb    H11    104 0.06265900   1.008000   ; qtot 0.379505
  105         hc      4    bbb    H12    105 0.06265900   1.008000   ; qtot 0.442164
  106         c3      4    bbb     C7    106 0.05858200  12.010000   ; qtot 0.500746
  107         h1      4    bbb    H13    107 0.06123400   1.008000   ; qtot 0.561980
  108         h1      4    bbb    H14    108 0.06123400   1.008000   ; qtot 0.623214
  109         c3      4    bbb     C8    109 -0.72423400  12.010000   ; qtot -0.101020
  110         h1      4    bbb    H15    110 0.25637600   1.008000   ; qtot 0.155356
  111         h1      4    bbb    H16    111 0.25637600   1.008000   ; qtot 0.411732
  112         c3      4    bbb     C9    112 -0.72423400  12.010000   ; qtot -0.312502
  113         h1      4    bbb    H17    113 0.25637600   1.008000   ; qtot -0.056126
  114         h1      4    bbb    H18    114 0.25637600   1.008000   ; qtot 0.200250
  115         os      4    bbb     O1    115 -0.20025300  16.000000   ; qtot -0.000003
; residue    5 bbb rtp bbb q -0.0
  116         n3      5    bbb     N1    116 -0.59685800  14.010000   ; qtot -0.596861
  117         c3      5    bbb     C1    117 0.10137000  12.010000   ; qtot -0.495491
  118         h1      5    bbb     H1    118 0.04411300   1.008000   ; qtot -0.451378
  119         h1      5    bbb     H2    119 0.04411300   1.008000   ; qtot -0.407265
  120         c3      5    bbb     C2    120 0.10137000  12.010000   ; qtot -0.305895
  121         h1      5    bbb     H3    121 0.04411300   1.008000   ; qtot -0.261782
  122         h1      5    bbb     H4    122 0.04411300   1.008000   ; qtot -0.217669
  123         c3      5    bbb     C3    123 -0.00195300  12.010000   ; qtot -0.219622
  124         h1      5    bbb     H5    124 0.05064400   1.008000   ; qtot -0.168978
  125         h1      5    bbb     H6    125 0.05064400   1.008000   ; qtot -0.118334
  126         c3      5    bbb     C4    126 -0.01612100  12.010000   ; qtot -0.134455
  127         hc      5    bbb     H7    127 0.04936100   1.008000   ; qtot -0.085094
  128         hc      5    bbb     H8    128 0.04936100   1.008000   ; qtot -0.035733
  129         c3      5    bbb     C5    129 0.11363000  12.010000   ; qtot 0.077897
  130         hc      5    bbb     H9    130 0.06265900   1.008000   ; qtot 0.140556
  131         hc      5    bbb    H10    131 0.06265900   1.008000   ; qtot 0.203215
  132         c3      5    bbb     C6    132 0.11363000  12.010000   ; qtot 0.316845
  133         hc      5    bbb    H11    133 0.06265900   1.008000   ; qtot 0.379504
  134         hc      5    bbb    H12    134 0.06265900   1.008000   ; qtot 0.442163
  135         c3      5    bbb     C7    135 0.05858200  12.010000   ; qtot 0.500745
  136         h1      5    bbb    H13    136 0.06123400   1.008000   ; qtot 0.561979
  137         h1      5    bbb    H14    137 0.06123400   1.008000   ; qtot 0.623213
  138         c3      5    bbb     C8    138 -0.72423400  12.010000   ; qtot -0.101021
  139         h1      5    bbb    H15    139 0.25637600   1.008000   ; qtot 0.155355
  140         h1      5    bbb    H16    140 0.25637600   1.008000   ; qtot 0.411731
  141         c3      5    bbb     C9    141 -0.72423400  12.010000   ; qtot -0.312503
  142         h1      5    bbb    H17    142 0.25637600   1.008000   ; qtot -0.056127
  143         h1      5    bbb    H18    143 0.25637600   1.008000   ; qtot 0.200249
  144         os      5    bbb     O1    144 -0.20025300  16.000000   ; qtot -0.000004
; residue    6 bbb rtp bbb q -0.0
  145         n3      6    bbb     N1    145 -0.59685800  14.010000   ; qtot -0.596862
  146         c3      6    bbb     C1    146 0.10137000  12.010000   ; qtot -0.495492
  147         h1      6    bbb     H1    147 0.04411300   1.008000   ; qtot -0.451379
  148         h1      6    bbb     H2    148 0.04411300   1.008000   ; qtot -0.407266
  149         c3      6    bbb     C2    149 0.10137000  12.010000   ; qtot -0.305896
  150         h1      6    bbb     H3    150 0.04411300   1.008000   ; qtot -0.261783
  151         h1      6    bbb     H4    151 0.04411300   1.008000   ; qtot -0.217670
  152         c3      6    bbb     C3    152 -0.00195300  12.010000   ; qtot -0.219623
  153         h1      6    bbb     H5    153 0.05064400   1.008000   ; qtot -0.168979
  154         h1      6    bbb     H6    154 0.05064400   1.008000   ; qtot -0.118335
  155         c3      6    bbb     C4    155 -0.01612100  12.010000   ; qtot -0.134456
  156         hc      6    bbb     H7    156 0.04936100   1.008000   ; qtot -0.085095
  157         hc      6    bbb     H8    157 0.04936100   1.008000   ; qtot -0.035734
  158         c3      6    bbb     C5    158 0.11363000  12.010000   ; qtot 0.077896
  159         hc      6    bbb     H9    159 0.06265900   1.008000   ; qtot 0.140555
  160         hc      6    bbb    H10    160 0.06265900   1.008000   ; qtot 0.203214
  161         c3      6    bbb     C6    161 0.11363000  12.010000   ; qtot 0.316844
  162         hc      6    bbb    H11    162 0.06265900   1.008000   ; qtot 0.379503
  163         hc      6    bbb    H12    163 0.06265900   1.008000   ; qtot 0.442162
  164         c3      6    bbb     C7    164 0.05858200  12.010000   ; qtot 0.500744
  165         h1      6    bbb    H13    165 0.06123400   1.008000   ; qtot 0.561978
  166         h1      6    bbb    H14    166 0.06123400   1.008000   ; qtot 0.623212
  167         c3      6    bbb     C8    167 -0.72423400  12.010000   ; qtot -0.101022
  168         h1      6    bbb    H15    168 0.25637600   1.008000   ; qtot 0.155354
  169         h1      6    bbb    H16    169 0.25637600   1.008000   ; qtot 0.411730
  170         c3      6    bbb     C9    170 -0.72423400  12.010000   ; qtot -0.312504
  171         h1      6    bbb    H17    171 0.25637600   1.008000   ; qtot -0.056128
  172         h1      6    bbb    H18    172 0.25637600   1.008000   ; qtot 0.200248
  173         os      6    bbb     O1    173 -0.20025300  16.000000   ; qtot -0.000005
; residue    7 bbb rtp bbb q -0.0
  174         n3      7    bbb     N1    174 -0.59685800  14.010000   ; qtot -0.596863
  175         c3      7    bbb     C1    175 0.10137000  12.010000   ; qtot -0.495493
  176         h1      7    bbb     H1    176 0.04411300   1.008000   ; qtot -0.451380
  177         h1      7    bbb     H2    177 0.04411300   1.008000   ; qtot -0.407267
  178         c3      7    bbb     C2    178 0.10137000  12.010000   ; qtot -0.305897
  179         h1      7    bbb     H3    179 0.04411300   1.008000   ; qtot -0.261784
  180         h1      7    bbb     H4    180 0.04411300   1.008000   ; qtot -0.217671
  181         c3      7    bbb     C3    181 -0.00195300  12.010000   ; qtot -0.219624
  182         h1      7    bbb     H5    182 0.05064400   1.008000   ; qtot -0.168980
  183         h1      7    bbb     H6    183 0.05064400   1.008000   ; qtot -0.118336
  184         c3      7    bbb     C4    184 -0.01612100  12.010000   ; qtot -0.134457
  185         hc      7    bbb     H7    185 0.04936100   1.008000   ; qtot -0.085096
  186         hc      7    bbb     H8    186 0.04936100   1.008000   ; qtot -0.035735
  187         c3      7    bbb     C5    187 0.11363000  12.010000   ; qtot 0.077895
  188         hc      7    bbb     H9    188 0.06265900   1.008000   ; qtot 0.140554
  189         hc      7    bbb    H10    189 0.06265900   1.008000   ; qtot 0.203213
  190         c3      7    bbb     C6    190 0.11363000  12.010000   ; qtot 0.316843
  191         hc      7    bbb    H11    191 0.06265900   1.008000   ; qtot 0.379502
  192         hc      7    bbb    H12    192 0.06265900   1.008000   ; qtot 0.442161
  193         c3      7    bbb     C7    193 0.05858200  12.010000   ; qtot 0.500743
  194         h1      7    bbb    H13    194 0.06123400   1.008000   ; qtot 0.561977
  195         h1      7    bbb    H14    195 0.06123400   1.008000   ; qtot 0.623211
  196         c3      7    bbb     C8    196 -0.72423400  12.010000   ; qtot -0.101023
  197         h1      7    bbb    H15    197 0.25637600   1.008000   ; qtot 0.155353
  198         h1      7    bbb    H16    198 0.25637600   1.008000   ; qtot 0.411729
  199         c3      7    bbb     C9    199 -0.72423400  12.010000   ; qtot -0.312505
  200         h1      7    bbb    H17    200 0.25637600   1.008000   ; qtot -0.056129
  201         h1      7    bbb    H18    201 0.25637600   1.008000   ; qtot 0.200247
  202         os      7    bbb     O1    202 -0.20025300  16.000000   ; qtot -0.000006
; residue    8 bbb rtp bbb q -0.0
  203         n3      8    bbb     N1    203 -0.59685800  14.010000   ; qtot -0.596864
  204         c3      8    bbb     C1    204 0.10137000  12.010000   ; qtot -0.495494
  205         h1      8    bbb     H1    205 0.04411300   1.008000   ; qtot -0.451381
  206         h1      8    bbb     H2    206 0.04411300   1.008000   ; qtot -0.407268
  207         c3      8    bbb     C2    207 0.10137000  12.010000   ; qtot -0.305898
  208         h1      8    bbb     H3    208 0.04411300   1.008000   ; qtot -0.261785
  209         h1      8    bbb     H4    209 0.04411300   1.008000   ; qtot -0.217672
  210         c3      8    bbb     C3    210 -0.00195300  12.010000   ; qtot -0.219625
  211         h1      8    bbb     H5    211 0.05064400   1.008000   ; qtot -0.168981
  212         h1      8    bbb     H6    212 0.05064400   1.008000   ; qtot -0.118337
  213         c3      8    bbb     C4    213 -0.01612100  12.010000   ; qtot -0.134458
  214         hc      8    bbb     H7    214 0.04936100   1.008000   ; qtot -0.085097
  215         hc      8    bbb     H8    215 0.04936100   1.008000   ; qtot -0.035736
  216         c3      8    bbb     C5    216 0.11363000  12.010000   ; qtot 0.077894
  217         hc      8    bbb     H9    217 0.06265900   1.008000   ; qtot 0.140553
  218         hc      8    bbb    H10    218 0.06265900   1.008000   ; qtot 0.203212
  219         c3      8    bbb     C6    219 0.11363000  12.010000   ; qtot 0.316842
  220         hc      8    bbb    H11    220 0.06265900   1.008000   ; qtot 0.379501
  221         hc      8    bbb    H12    221 0.06265900   1.008000   ; qtot 0.442160
  222         c3      8    bbb     C7    222 0.05858200  12.010000   ; qtot 0.500742
  223         h1      8    bbb    H13    223 0.06123400   1.008000   ; qtot 0.561976
  224         h1      8    bbb    H14    224 0.06123400   1.008000   ; qtot 0.623210
  225         c3      8    bbb     C8    225 -0.72423400  12.010000   ; qtot -0.101024
  226         h1      8    bbb    H15    226 0.25637600   1.008000   ; qtot 0.155352
  227         h1      8    bbb    H16    227 0.25637600   1.008000   ; qtot 0.411728
  228         c3      8    bbb     C9    228 -0.72423400  12.010000   ; qtot -0.312506
  229         h1      8    bbb    H17    229 0.25637600   1.008000   ; qtot -0.056130
  230         h1      8    bbb    H18    230 0.25637600   1.008000   ; qtot 0.200246
  231         os      8    bbb     O1    231 -0.20025300  16.000000   ; qtot -0.000007
; residue    9 bbb rtp bbb q -0.0
  232         n3      9    bbb     N1    232 -0.59685800  14.010000   ; qtot -0.596865
  233         c3      9    bbb     C1    233 0.10137000  12.010000   ; qtot -0.495495
  234         h1      9    bbb     H1    234 0.04411300   1.008000   ; qtot -0.451382
  235         h1      9    bbb     H2    235 0.04411300   1.008000   ; qtot -0.407269
  236         c3      9    bbb     C2    236 0.10137000  12.010000   ; qtot -0.305899
  237         h1      9    bbb     H3    237 0.04411300   1.008000   ; qtot -0.261786
  238         h1      9    bbb     H4    238 0.04411300   1.008000   ; qtot -0.217673
  239         c3      9    bbb     C3    239 -0.00195300  12.010000   ; qtot -0.219626
  240         h1      9    bbb     H5    240 0.05064400   1.008000   ; qtot -0.168982
  241         h1      9    bbb     H6    241 0.05064400   1.008000   ; qtot -0.118338
  242         c3      9    bbb     C4    242 -0.01612100  12.010000   ; qtot -0.134459
  243         hc      9    bbb     H7    243 0.04936100   1.008000   ; qtot -0.085098
  244         hc      9    bbb     H8    244 0.04936100   1.008000   ; qtot -0.035737
  245         c3      9    bbb     C5    245 0.11363000  12.010000   ; qtot 0.077893
  246         hc      9    bbb     H9    246 0.06265900   1.008000   ; qtot 0.140552
  247         hc      9    bbb    H10    247 0.06265900   1.008000   ; qtot 0.203211
  248         c3      9    bbb     C6    248 0.11363000  12.010000   ; qtot 0.316841
  249         hc      9    bbb    H11    249 0.06265900   1.008000   ; qtot 0.379500
  250         hc      9    bbb    H12    250 0.06265900   1.008000   ; qtot 0.442159
  251         c3      9    bbb     C7    251 0.05858200  12.010000   ; qtot 0.500741
  252         h1      9    bbb    H13    252 0.06123400   1.008000   ; qtot 0.561975
  253         h1      9    bbb    H14    253 0.06123400   1.008000   ; qtot 0.623209
  254         c3      9    bbb     C8    254 -0.72423400  12.010000   ; qtot -0.101025
  255         h1      9    bbb    H15    255 0.25637600   1.008000   ; qtot 0.155351
  256         h1      9    bbb    H16    256 0.25637600   1.008000   ; qtot 0.411727
  257         c3      9    bbb     C9    257 -0.72423400  12.010000   ; qtot -0.312507
  258         h1      9    bbb    H17    258 0.25637600   1.008000   ; qtot -0.056131
  259         h1      9    bbb    H18    259 0.25637600   1.008000   ; qtot 0.200245
  260         os      9    bbb     O1    260 -0.20025300  16.000000   ; qtot -0.000008
; residue   10 bbb rtp bbb q -0.0
  261         n3     10    bbb     N1    261 -0.59685800  14.010000   ; qtot -0.596866
  262         c3     10    bbb     C1    262 0.10137000  12.010000   ; qtot -0.495496
  263         h1     10    bbb     H1    263 0.04411300   1.008000   ; qtot -0.451383
  264         h1     10    bbb     H2    264 0.04411300   1.008000   ; qtot -0.407270
  265         c3     10    bbb     C2    265 0.10137000  12.010000   ; qtot -0.305900
  266         h1     10    bbb     H3    266 0.04411300   1.008000   ; qtot -0.261787
  267         h1     10    bbb     H4    267 0.04411300   1.008000   ; qtot -0.217674
  268         c3     10    bbb     C3    268 -0.00195300  12.010000   ; qtot -0.219627
  269         h1     10    bbb     H5    269 0.05064400   1.008000   ; qtot -0.168983
  270         h1     10    bbb     H6    270 0.05064400   1.008000   ; qtot -0.118339
  271         c3     10    bbb     C4    271 -0.01612100  12.010000   ; qtot -0.134460
  272         hc     10    bbb     H7    272 0.04936100   1.008000   ; qtot -0.085099
  273         hc     10    bbb     H8    273 0.04936100   1.008000   ; qtot -0.035738
  274         c3     10    bbb     C5    274 0.11363000  12.010000   ; qtot 0.077892
  275         hc     10    bbb     H9    275 0.06265900   1.008000   ; qtot 0.140551
  276         hc     10    bbb    H10    276 0.06265900   1.008000   ; qtot 0.203210
  277         c3     10    bbb     C6    277 0.11363000  12.010000   ; qtot 0.316840
  278         hc     10    bbb    H11    278 0.06265900   1.008000   ; qtot 0.379499
  279         hc     10    bbb    H12    279 0.06265900   1.008000   ; qtot 0.442158
  280         c3     10    bbb     C7    280 0.05858200  12.010000   ; qtot 0.500740
  281         h1     10    bbb    H13    281 0.06123400   1.008000   ; qtot 0.561974
  282         h1     10    bbb    H14    282 0.06123400   1.008000   ; qtot 0.623208
  283         c3     10    bbb     C8    283 -0.72423400  12.010000   ; qtot -0.101026
  284         h1     10    bbb    H15    284 0.25637600   1.008000   ; qtot 0.155350
  285         h1     10    bbb    H16    285 0.25637600   1.008000   ; qtot 0.411726
  286         c3     10    bbb     C9    286 -0.72423400  12.010000   ; qtot -0.312508
  287         h1     10    bbb    H17    287 0.25637600   1.008000   ; qtot -0.056132
  288         h1     10    bbb    H18    288 0.25637600   1.008000   ; qtot 0.200244
  289         os     10    bbb     O1    289 -0.20025300  16.000000   ; qtot -0.000009
; residue   11 bbb rtp bbb q -0.0
  290         n3     11    bbb     N1    290 -0.59685800  14.010000   ; qtot -0.596867
  291         c3     11    bbb     C1    291 0.10137000  12.010000   ; qtot -0.495497
  292         h1     11    bbb     H1    292 0.04411300   1.008000   ; qtot -0.451384
  293         h1     11    bbb     H2    293 0.04411300   1.008000   ; qtot -0.407271
  294         c3     11    bbb     C2    294 0.10137000  12.010000   ; qtot -0.305901
  295         h1     11    bbb     H3    295 0.04411300   1.008000   ; qtot -0.261788
  296         h1     11    bbb     H4    296 0.04411300   1.008000   ; qtot -0.217675
  297         c3     11    bbb     C3    297 -0.00195300  12.010000   ; qtot -0.219628
  298         h1     11    bbb     H5    298 0.05064400   1.008000   ; qtot -0.168984
  299         h1     11    bbb     H6    299 0.05064400   1.008000   ; qtot -0.118340
  300         c3     11    bbb     C4    300 -0.01612100  12.010000   ; qtot -0.134461
  301         hc     11    bbb     H7    301 0.04936100   1.008000   ; qtot -0.085100
  302         hc     11    bbb     H8    302 0.04936100   1.008000   ; qtot -0.035739
  303         c3     11    bbb     C5    303 0.11363000  12.010000   ; qtot 0.077891
  304         hc     11    bbb     H9    304 0.06265900   1.008000   ; qtot 0.140550
  305         hc     11    bbb    H10    305 0.06265900   1.008000   ; qtot 0.203209
  306         c3     11    bbb     C6    306 0.11363000  12.010000   ; qtot 0.316839
  307         hc     11    bbb    H11    307 0.06265900   1.008000   ; qtot 0.379498
  308         hc     11    bbb    H12    308 0.06265900   1.008000   ; qtot 0.442157
  309         c3     11    bbb     C7    309 0.05858200  12.010000   ; qtot 0.500739
  310         h1     11    bbb    H13    310 0.06123400   1.008000   ; qtot 0.561973
  311         h1     11    bbb    H14    311 0.06123400   1.008000   ; qtot 0.623207
  312         c3     11    bbb     C8    312 -0.72423400  12.010000   ; qtot -0.101027
  313         h1     11    bbb    H15    313 0.25637600   1.008000   ; qtot 0.155349
  314         h1     11    bbb    H16    314 0.25637600   1.008000   ; qtot 0.411725
  315         c3     11    bbb     C9    315 -0.72423400  12.010000   ; qtot -0.312509
  316         h1     11    bbb    H17    316 0.25637600   1.008000   ; qtot -0.056133
  317         h1     11    bbb    H18    317 0.25637600   1.008000   ; qtot 0.200243
  318         os     11    bbb     O1    318 -0.20025300  16.000000   ; qtot -0.000010
; residue   12 bbb rtp bbb q -0.0
  319         n3     12    bbb     N1    319 -0.59685800  14.010000   ; qtot -0.596868
  320         c3     12    bbb     C1    320 0.10137000  12.010000   ; qtot -0.495498
  321         h1     12    bbb     H1    321 0.04411300   1.008000   ; qtot -0.451385
  322         h1     12    bbb     H2    322 0.04411300   1.008000   ; qtot -0.407272
  323         c3     12    bbb     C2    323 0.10137000  12.010000   ; qtot -0.305902
  324         h1     12    bbb     H3    324 0.04411300   1.008000   ; qtot -0.261789
  325         h1     12    bbb     H4    325 0.04411300   1.008000   ; qtot -0.217676
  326         c3     12    bbb     C3    326 -0.00195300  12.010000   ; qtot -0.219629
  327         h1     12    bbb     H5    327 0.05064400   1.008000   ; qtot -0.168985
  328         h1     12    bbb     H6    328 0.05064400   1.008000   ; qtot -0.118341
  329         c3     12    bbb     C4    329 -0.01612100  12.010000   ; qtot -0.134462
  330         hc     12    bbb     H7    330 0.04936100   1.008000   ; qtot -0.085101
  331         hc     12    bbb     H8    331 0.04936100   1.008000   ; qtot -0.035740
  332         c3     12    bbb     C5    332 0.11363000  12.010000   ; qtot 0.077890
  333         hc     12    bbb     H9    333 0.06265900   1.008000   ; qtot 0.140549
  334         hc     12    bbb    H10    334 0.06265900   1.008000   ; qtot 0.203208
  335         c3     12    bbb     C6    335 0.11363000  12.010000   ; qtot 0.316838
  336         hc     12    bbb    H11    336 0.06265900   1.008000   ; qtot 0.379497
  337         hc     12    bbb    H12    337 0.06265900   1.008000   ; qtot 0.442156
  338         c3     12    bbb     C7    338 0.05858200  12.010000   ; qtot 0.500738
  339         h1     12    bbb    H13    339 0.06123400   1.008000   ; qtot 0.561972
  340         h1     12    bbb    H14    340 0.06123400   1.008000   ; qtot 0.623206
  341         c3     12    bbb     C8    341 -0.72423400  12.010000   ; qtot -0.101028
  342         h1     12    bbb    H15    342 0.25637600   1.008000   ; qtot 0.155348
  343         h1     12    bbb    H16    343 0.25637600   1.008000   ; qtot 0.411724
  344         c3     12    bbb     C9    344 -0.72423400  12.010000   ; qtot -0.312510
  345         h1     12    bbb    H17    345 0.25637600   1.008000   ; qtot -0.056134
  346         h1     12    bbb    H18    346 0.25637600   1.008000   ; qtot 0.200242
  347         os     12    bbb     O1    347 -0.20025300  16.000000   ; qtot -0.000011
; residue   13 bbb rtp bbb q -0.0
  348         n3     13    bbb     N1    348 -0.59685800  14.010000   ; qtot -0.596869
  349         c3     13    bbb     C1    349 0.10137000  12.010000   ; qtot -0.495499
  350         h1     13    bbb     H1    350 0.04411300   1.008000   ; qtot -0.451386
  351         h1     13    bbb     H2    351 0.04411300   1.008000   ; qtot -0.407273
  352         c3     13    bbb     C2    352 0.10137000  12.010000   ; qtot -0.305903
  353         h1     13    bbb     H3    353 0.04411300   1.008000   ; qtot -0.261790
  354         h1     13    bbb     H4    354 0.04411300   1.008000   ; qtot -0.217677
  355         c3     13    bbb     C3    355 -0.00195300  12.010000   ; qtot -0.219630
  356         h1     13    bbb     H5    356 0.05064400   1.008000   ; qtot -0.168986
  357         h1     13    bbb     H6    357 0.05064400   1.008000   ; qtot -0.118342
  358         c3     13    bbb     C4    358 -0.01612100  12.010000   ; qtot -0.134463
  359         hc     13    bbb     H7    359 0.04936100   1.008000   ; qtot -0.085102
  360         hc     13    bbb     H8    360 0.04936100   1.008000   ; qtot -0.035741
  361         c3     13    bbb     C5    361 0.11363000  12.010000   ; qtot 0.077889
  362         hc     13    bbb     H9    362 0.06265900   1.008000   ; qtot 0.140548
  363         hc     13    bbb    H10    363 0.06265900   1.008000   ; qtot 0.203207
  364         c3     13    bbb     C6    364 0.11363000  12.010000   ; qtot 0.316837
  365         hc     13    bbb    H11    365 0.06265900   1.008000   ; qtot 0.379496
  366         hc     13    bbb    H12    366 0.06265900   1.008000   ; qtot 0.442155
  367         c3     13    bbb     C7    367 0.05858200  12.010000   ; qtot 0.500737
  368         h1     13    bbb    H13    368 0.06123400   1.008000   ; qtot 0.561971
  369         h1     13    bbb    H14    369 0.06123400   1.008000   ; qtot 0.623205
  370         c3     13    bbb     C8    370 -0.72423400  12.010000   ; qtot -0.101029
  371         h1     13    bbb    H15    371 0.25637600   1.008000   ; qtot 0.155347
  372         h1     13    bbb    H16    372 0.25637600   1.008000   ; qtot 0.411723
  373         c3     13    bbb     C9    373 -0.72423400  12.010000   ; qtot -0.312511
  374         h1     13    bbb    H17    374 0.25637600   1.008000   ; qtot -0.056135
  375         h1     13    bbb    H18    375 0.25637600   1.008000   ; qtot 0.200241
  376         os     13    bbb     O1    376 -0.20025300  16.000000   ; qtot -0.000012
; residue   14 bbb rtp bbb q -0.0
  377         n3     14    bbb     N1    377 -0.59685800  14.010000   ; qtot -0.596870
  378         c3     14    bbb     C1    378 0.10137000  12.010000   ; qtot -0.495500
  379         h1     14    bbb     H1    379 0.04411300   1.008000   ; qtot -0.451387
  380         h1     14    bbb     H2    380 0.04411300   1.008000   ; qtot -0.407274
  381         c3     14    bbb     C2    381 0.10137000  12.010000   ; qtot -0.305904
  382         h1     14    bbb     H3    382 0.04411300   1.008000   ; qtot -0.261791
  383         h1     14    bbb     H4    383 0.04411300   1.008000   ; qtot -0.217678
  384         c3     14    bbb     C3    384 -0.00195300  12.010000   ; qtot -0.219631
  385         h1     14    bbb     H5    385 0.05064400   1.008000   ; qtot -0.168987
  386         h1     14    bbb     H6    386 0.05064400   1.008000   ; qtot -0.118343
  387         c3     14    bbb     C4    387 -0.01612100  12.010000   ; qtot -0.134464
  388         hc     14    bbb     H7    388 0.04936100   1.008000   ; qtot -0.085103
  389         hc     14    bbb     H8    389 0.04936100   1.008000   ; qtot -0.035742
  390         c3     14    bbb     C5    390 0.11363000  12.010000   ; qtot 0.077888
  391         hc     14    bbb     H9    391 0.06265900   1.008000   ; qtot 0.140547
  392         hc     14    bbb    H10    392 0.06265900   1.008000   ; qtot 0.203206
  393         c3     14    bbb     C6    393 0.11363000  12.010000   ; qtot 0.316836
  394         hc     14    bbb    H11    394 0.06265900   1.008000   ; qtot 0.379495
  395         hc     14    bbb    H12    395 0.06265900   1.008000   ; qtot 0.442154
  396         c3     14    bbb     C7    396 0.05858200  12.010000   ; qtot 0.500736
  397         h1     14    bbb    H13    397 0.06123400   1.008000   ; qtot 0.561970
  398         h1     14    bbb    H14    398 0.06123400   1.008000   ; qtot 0.623204
  399         c3     14    bbb     C8    399 -0.72423400  12.010000   ; qtot -0.101030
  400         h1     14    bbb    H15    400 0.25637600   1.008000   ; qtot 0.155346
  401         h1     14    bbb    H16    401 0.25637600   1.008000   ; qtot 0.411722
  402         c3     14    bbb     C9    402 -0.72423400  12.010000   ; qtot -0.312512
  403         h1     14    bbb    H17    403 0.25637600   1.008000   ; qtot -0.056136
  404         h1     14    bbb    H18    404 0.25637600   1.008000   ; qtot 0.200240
  405         os     14    bbb     O1    405 -0.20025300  16.000000   ; qtot -0.000013
; residue   15 bbb rtp bbb q -0.0
  406         n3     15    bbb     N1    406 -0.59685800  14.010000   ; qtot -0.596871
  407         c3     15    bbb     C1    407 0.10137000  12.010000   ; qtot -0.495501
  408         h1     15    bbb     H1    408 0.04411300   1.008000   ; qtot -0.451388
  409         h1     15    bbb     H2    409 0.04411300   1.008000   ; qtot -0.407275
  410         c3     15    bbb     C2    410 0.10137000  12.010000   ; qtot -0.305905
  411         h1     15    bbb     H3    411 0.04411300   1.008000   ; qtot -0.261792
  412         h1     15    bbb     H4    412 0.04411300   1.008000   ; qtot -0.217679
  413         c3     15    bbb     C3    413 -0.00195300  12.010000   ; qtot -0.219632
  414         h1     15    bbb     H5    414 0.05064400   1.008000   ; qtot -0.168988
  415         h1     15    bbb     H6    415 0.05064400   1.008000   ; qtot -0.118344
  416         c3     15    bbb     C4    416 -0.01612100  12.010000   ; qtot -0.134465
  417         hc     15    bbb     H7    417 0.04936100   1.008000   ; qtot -0.085104
  418         hc     15    bbb     H8    418 0.04936100   1.008000   ; qtot -0.035743
  419         c3     15    bbb     C5    419 0.11363000  12.010000   ; qtot 0.077887
  420         hc     15    bbb     H9    420 0.06265900   1.008000   ; qtot 0.140546
  421         hc     15    bbb    H10    421 0.06265900   1.008000   ; qtot 0.203205
  422         c3     15    bbb     C6    422 0.11363000  12.010000   ; qtot 0.316835
  423         hc     15    bbb    H11    423 0.06265900   1.008000   ; qtot 0.379494
  424         hc     15    bbb    H12    424 0.06265900   1.008000   ; qtot 0.442153
  425         c3     15    bbb     C7    425 0.05858200  12.010000   ; qtot 0.500735
  426         h1     15    bbb    H13    426 0.06123400   1.008000   ; qtot 0.561969
  427         h1     15    bbb    H14    427 0.06123400   1.008000   ; qtot 0.623203
  428         c3     15    bbb     C8    428 -0.72423400  12.010000   ; qtot -0.101031
  429         h1     15    bbb    H15    429 0.25637600   1.008000   ; qtot 0.155345
  430         h1     15    bbb    H16    430 0.25637600   1.008000   ; qtot 0.411721
  431         c3     15    bbb     C9    431 -0.72423400  12.010000   ; qtot -0.312513
  432         h1     15    bbb    H17    432 0.25637600   1.008000   ; qtot -0.056137
  433         h1     15    bbb    H18    433 0.25637600   1.008000   ; qtot 0.200239
  434         os     15    bbb     O1    434 -0.20025300  16.000000   ; qtot -0.000014
; residue   16 bbb rtp bbb q -0.0
  435         n3     16    bbb     N1    435 -0.59685800  14.010000   ; qtot -0.596872
  436         c3     16    bbb     C1    436 0.10137000  12.010000   ; qtot -0.495502
  437         h1     16    bbb     H1    437 0.04411300   1.008000   ; qtot -0.451389
  438         h1     16    bbb     H2    438 0.04411300   1.008000   ; qtot -0.407276
  439         c3     16    bbb     C2    439 0.10137000  12.010000   ; qtot -0.305906
  440         h1     16    bbb     H3    440 0.04411300   1.008000   ; qtot -0.261793
  441         h1     16    bbb     H4    441 0.04411300   1.008000   ; qtot -0.217680
  442         c3     16    bbb     C3    442 -0.00195300  12.010000   ; qtot -0.219633
  443         h1     16    bbb     H5    443 0.05064400   1.008000   ; qtot -0.168989
  444         h1     16    bbb     H6    444 0.05064400   1.008000   ; qtot -0.118345
  445         c3     16    bbb     C4    445 -0.01612100  12.010000   ; qtot -0.134466
  446         hc     16    bbb     H7    446 0.04936100   1.008000   ; qtot -0.085105
  447         hc     16    bbb     H8    447 0.04936100   1.008000   ; qtot -0.035744
  448         c3     16    bbb     C5    448 0.11363000  12.010000   ; qtot 0.077886
  449         hc     16    bbb     H9    449 0.06265900   1.008000   ; qtot 0.140545
  450         hc     16    bbb    H10    450 0.06265900   1.008000   ; qtot 0.203204
  451         c3     16    bbb     C6    451 0.11363000  12.010000   ; qtot 0.316834
  452         hc     16    bbb    H11    452 0.06265900   1.008000   ; qtot 0.379493
  453         hc     16    bbb    H12    453 0.06265900   1.008000   ; qtot 0.442152
  454         c3     16    bbb     C7    454 0.05858200  12.010000   ; qtot 0.500734
  455         h1     16    bbb    H13    455 0.06123400   1.008000   ; qtot 0.561968
  456         h1     16    bbb    H14    456 0.06123400   1.008000   ; qtot 0.623202
  457         c3     16    bbb     C8    457 -0.72423400  12.010000   ; qtot -0.101032
  458         h1     16    bbb    H15    458 0.25637600   1.008000   ; qtot 0.155344
  459         h1     16    bbb    H16    459 0.25637600   1.008000   ; qtot 0.411720
  460         c3     16    bbb     C9    460 -0.72423400  12.010000   ; qtot -0.312514
  461         h1     16    bbb    H17    461 0.25637600   1.008000   ; qtot -0.056138
  462         h1     16    bbb    H18    462 0.25637600   1.008000   ; qtot 0.200238
  463         os     16    bbb     O1    463 -0.20025300  16.000000   ; qtot -0.000015
; residue   17 bbb rtp bbb q -0.0
  464         n3     17    bbb     N1    464 -0.59685800  14.010000   ; qtot -0.596873
  465         c3     17    bbb     C1    465 0.10137000  12.010000   ; qtot -0.495503
  466         h1     17    bbb     H1    466 0.04411300   1.008000   ; qtot -0.451390
  467         h1     17    bbb     H2    467 0.04411300   1.008000   ; qtot -0.407277
  468         c3     17    bbb     C2    468 0.10137000  12.010000   ; qtot -0.305907
  469         h1     17    bbb     H3    469 0.04411300   1.008000   ; qtot -0.261794
  470         h1     17    bbb     H4    470 0.04411300   1.008000   ; qtot -0.217681
  471         c3     17    bbb     C3    471 -0.00195300  12.010000   ; qtot -0.219634
  472         h1     17    bbb     H5    472 0.05064400   1.008000   ; qtot -0.168990
  473         h1     17    bbb     H6    473 0.05064400   1.008000   ; qtot -0.118346
  474         c3     17    bbb     C4    474 -0.01612100  12.010000   ; qtot -0.134467
  475         hc     17    bbb     H7    475 0.04936100   1.008000   ; qtot -0.085106
  476         hc     17    bbb     H8    476 0.04936100   1.008000   ; qtot -0.035745
  477         c3     17    bbb     C5    477 0.11363000  12.010000   ; qtot 0.077885
  478         hc     17    bbb     H9    478 0.06265900   1.008000   ; qtot 0.140544
  479         hc     17    bbb    H10    479 0.06265900   1.008000   ; qtot 0.203203
  480         c3     17    bbb     C6    480 0.11363000  12.010000   ; qtot 0.316833
  481         hc     17    bbb    H11    481 0.06265900   1.008000   ; qtot 0.379492
  482         hc     17    bbb    H12    482 0.06265900   1.008000   ; qtot 0.442151
  483         c3     17    bbb     C7    483 0.05858200  12.010000   ; qtot 0.500733
  484         h1     17    bbb    H13    484 0.06123400   1.008000   ; qtot 0.561967
  485         h1     17    bbb    H14    485 0.06123400   1.008000   ; qtot 0.623201
  486         c3     17    bbb     C8    486 -0.72423400  12.010000   ; qtot -0.101033
  487         h1     17    bbb    H15    487 0.25637600   1.008000   ; qtot 0.155343
  488         h1     17    bbb    H16    488 0.25637600   1.008000   ; qtot 0.411719
  489         c3     17    bbb     C9    489 -0.72423400  12.010000   ; qtot -0.312515
  490         h1     17    bbb    H17    490 0.25637600   1.008000   ; qtot -0.056139
  491         h1     17    bbb    H18    491 0.25637600   1.008000   ; qtot 0.200237
  492         os     17    bbb     O1    492 -0.20025300  16.000000   ; qtot -0.000016
; residue   18 bbb rtp bbb q -0.0
  493         n3     18    bbb     N1    493 -0.59685800  14.010000   ; qtot -0.596874
  494         c3     18    bbb     C1    494 0.10137000  12.010000   ; qtot -0.495504
  495         h1     18    bbb     H1    495 0.04411300   1.008000   ; qtot -0.451391
  496         h1     18    bbb     H2    496 0.04411300   1.008000   ; qtot -0.407278
  497         c3     18    bbb     C2    497 0.10137000  12.010000   ; qtot -0.305908
  498         h1     18    bbb     H3    498 0.04411300   1.008000   ; qtot -0.261795
  499         h1     18    bbb     H4    499 0.04411300   1.008000   ; qtot -0.217682
  500         c3     18    bbb     C3    500 -0.00195300  12.010000   ; qtot -0.219635
  501         h1     18    bbb     H5    501 0.05064400   1.008000   ; qtot -0.168991
  502         h1     18    bbb     H6    502 0.05064400   1.008000   ; qtot -0.118347
  503         c3     18    bbb     C4    503 -0.01612100  12.010000   ; qtot -0.134468
  504         hc     18    bbb     H7    504 0.04936100   1.008000   ; qtot -0.085107
  505         hc     18    bbb     H8    505 0.04936100   1.008000   ; qtot -0.035746
  506         c3     18    bbb     C5    506 0.11363000  12.010000   ; qtot 0.077884
  507         hc     18    bbb     H9    507 0.06265900   1.008000   ; qtot 0.140543
  508         hc     18    bbb    H10    508 0.06265900   1.008000   ; qtot 0.203202
  509         c3     18    bbb     C6    509 0.11363000  12.010000   ; qtot 0.316832
  510         hc     18    bbb    H11    510 0.06265900   1.008000   ; qtot 0.379491
  511         hc     18    bbb    H12    511 0.06265900   1.008000   ; qtot 0.442150
  512         c3     18    bbb     C7    512 0.05858200  12.010000   ; qtot 0.500732
  513         h1     18    bbb    H13    513 0.06123400   1.008000   ; qtot 0.561966
  514         h1     18    bbb    H14    514 0.06123400   1.008000   ; qtot 0.623200
  515         c3     18    bbb     C8    515 -0.72423400  12.010000   ; qtot -0.101034
  516         h1     18    bbb    H15    516 0.25637600   1.008000   ; qtot 0.155342
  517         h1     18    bbb    H16    517 0.25637600   1.008000   ; qtot 0.411718
  518         c3     18    bbb     C9    518 -0.72423400  12.010000   ; qtot -0.312516
  519         h1     18    bbb    H17    519 0.25637600   1.008000   ; qtot -0.056140
  520         h1     18    bbb    H18    520 0.25637600   1.008000   ; qtot 0.200236
  521         os     18    bbb     O1    521 -0.20025300  16.000000   ; qtot -0.000017
; residue   19 bbb rtp bbb q -0.0
  522         n3     19    bbb     N1    522 -0.59685800  14.010000   ; qtot -0.596875
  523         c3     19    bbb     C1    523 0.10137000  12.010000   ; qtot -0.495505
  524         h1     19    bbb     H1    524 0.04411300   1.008000   ; qtot -0.451392
  525         h1     19    bbb     H2    525 0.04411300   1.008000   ; qtot -0.407279
  526         c3     19    bbb     C2    526 0.10137000  12.010000   ; qtot -0.305909
  527         h1     19    bbb     H3    527 0.04411300   1.008000   ; qtot -0.261796
  528         h1     19    bbb     H4    528 0.04411300   1.008000   ; qtot -0.217683
  529         c3     19    bbb     C3    529 -0.00195300  12.010000   ; qtot -0.219636
  530         h1     19    bbb     H5    530 0.05064400   1.008000   ; qtot -0.168992
  531         h1     19    bbb     H6    531 0.05064400   1.008000   ; qtot -0.118348
  532         c3     19    bbb     C4    532 -0.01612100  12.010000   ; qtot -0.134469
  533         hc     19    bbb     H7    533 0.04936100   1.008000   ; qtot -0.085108
  534         hc     19    bbb     H8    534 0.04936100   1.008000   ; qtot -0.035747
  535         c3     19    bbb     C5    535 0.11363000  12.010000   ; qtot 0.077883
  536         hc     19    bbb     H9    536 0.06265900   1.008000   ; qtot 0.140542
  537         hc     19    bbb    H10    537 0.06265900   1.008000   ; qtot 0.203201
  538         c3     19    bbb     C6    538 0.11363000  12.010000   ; qtot 0.316831
  539         hc     19    bbb    H11    539 0.06265900   1.008000   ; qtot 0.379490
  540         hc     19    bbb    H12    540 0.06265900   1.008000   ; qtot 0.442149
  541         c3     19    bbb     C7    541 0.05858200  12.010000   ; qtot 0.500731
  542         h1     19    bbb    H13    542 0.06123400   1.008000   ; qtot 0.561965
  543         h1     19    bbb    H14    543 0.06123400   1.008000   ; qtot 0.623199
  544         c3     19    bbb     C8    544 -0.72423400  12.010000   ; qtot -0.101035
  545         h1     19    bbb    H15    545 0.25637600   1.008000   ; qtot 0.155341
  546         h1     19    bbb    H16    546 0.25637600   1.008000   ; qtot 0.411717
  547         c3     19    bbb     C9    547 -0.72423400  12.010000   ; qtot -0.312517
  548         h1     19    bbb    H17    548 0.25637600   1.008000   ; qtot -0.056141
  549         h1     19    bbb    H18    549 0.25637600   1.008000   ; qtot 0.200235
  550         os     19    bbb     O1    550 -0.20025300  16.000000   ; qtot -0.000018
; residue   20 bbb rtp bbb q -0.0
  551         n3     20    bbb     N1    551 -0.59685800  14.010000   ; qtot -0.596876
  552         c3     20    bbb     C1    552 0.10137000  12.010000   ; qtot -0.495506
  553         h1     20    bbb     H1    553 0.04411300   1.008000   ; qtot -0.451393
  554         h1     20    bbb     H2    554 0.04411300   1.008000   ; qtot -0.407280
  555         c3     20    bbb     C2    555 0.10137000  12.010000   ; qtot -0.305910
  556         h1     20    bbb     H3    556 0.04411300   1.008000   ; qtot -0.261797
  557         h1     20    bbb     H4    557 0.04411300   1.008000   ; qtot -0.217684
  558         c3     20    bbb     C3    558 -0.00195300  12.010000   ; qtot -0.219637
  559         h1     20    bbb     H5    559 0.05064400   1.008000   ; qtot -0.168993
  560         h1     20    bbb     H6    560 0.05064400   1.008000   ; qtot -0.118349
  561         c3     20    bbb     C4    561 -0.01612100  12.010000   ; qtot -0.134470
  562         hc     20    bbb     H7    562 0.04936100   1.008000   ; qtot -0.085109
  563         hc     20    bbb     H8    563 0.04936100   1.008000   ; qtot -0.035748
  564         c3     20    bbb     C5    564 0.11363000  12.010000   ; qtot 0.077882
  565         hc     20    bbb     H9    565 0.06265900   1.008000   ; qtot 0.140541
  566         hc     20    bbb    H10    566 0.06265900   1.008000   ; qtot 0.203200
  567         c3     20    bbb     C6    567 0.11363000  12.010000   ; qtot 0.316830
  568         hc     20    bbb    H11    568 0.06265900   1.008000   ; qtot 0.379489
  569         hc     20    bbb    H12    569 0.06265900   1.008000   ; qtot 0.442148
  570         c3     20    bbb     C7    570 0.05858200  12.010000   ; qtot 0.500730
  571         h1     20    bbb    H13    571 0.06123400   1.008000   ; qtot 0.561964
  572         h1     20    bbb    H14    572 0.06123400   1.008000   ; qtot 0.623198
  573         c3     20    bbb     C8    573 -0.72423400  12.010000   ; qtot -0.101036
  574         h1     20    bbb    H15    574 0.25637600   1.008000   ; qtot 0.155340
  575         h1     20    bbb    H16    575 0.25637600   1.008000   ; qtot 0.411716
  576         c3     20    bbb     C9    576 -0.72423400  12.010000   ; qtot -0.312518
  577         h1     20    bbb    H17    577 0.25637600   1.008000   ; qtot -0.056142
  578         h1     20    bbb    H18    578 0.25637600   1.008000   ; qtot 0.200234
  579         os     20    bbb     O1    579 -0.20025300  16.000000   ; qtot -0.000019
; residue   21 bbb rtp bbb q -0.0
  580         n3     21    bbb     N1    580 -0.59685800  14.010000   ; qtot -0.596877
  581         c3     21    bbb     C1    581 0.10137000  12.010000   ; qtot -0.495507
  582         h1     21    bbb     H1    582 0.04411300   1.008000   ; qtot -0.451394
  583         h1     21    bbb     H2    583 0.04411300   1.008000   ; qtot -0.407281
  584         c3     21    bbb     C2    584 0.10137000  12.010000   ; qtot -0.305911
  585         h1     21    bbb     H3    585 0.04411300   1.008000   ; qtot -0.261798
  586         h1     21    bbb     H4    586 0.04411300   1.008000   ; qtot -0.217685
  587         c3     21    bbb     C3    587 -0.00195300  12.010000   ; qtot -0.219638
  588         h1     21    bbb     H5    588 0.05064400   1.008000   ; qtot -0.168994
  589         h1     21    bbb     H6    589 0.05064400   1.008000   ; qtot -0.118350
  590         c3     21    bbb     C4    590 -0.01612100  12.010000   ; qtot -0.134471
  591         hc     21    bbb     H7    591 0.04936100   1.008000   ; qtot -0.085110
  592         hc     21    bbb     H8    592 0.04936100   1.008000   ; qtot -0.035749
  593         c3     21    bbb     C5    593 0.11363000  12.010000   ; qtot 0.077881
  594         hc     21    bbb     H9    594 0.06265900   1.008000   ; qtot 0.140540
  595         hc     21    bbb    H10    595 0.06265900   1.008000   ; qtot 0.203199
  596         c3     21    bbb     C6    596 0.11363000  12.010000   ; qtot 0.316829
  597         hc     21    bbb    H11    597 0.06265900   1.008000   ; qtot 0.379488
  598         hc     21    bbb    H12    598 0.06265900   1.008000   ; qtot 0.442147
  599         c3     21    bbb     C7    599 0.05858200  12.010000   ; qtot 0.500729
  600         h1     21    bbb    H13    600 0.06123400   1.008000   ; qtot 0.561963
  601         h1     21    bbb    H14    601 0.06123400   1.008000   ; qtot 0.623197
  602         c3     21    bbb     C8    602 -0.72423400  12.010000   ; qtot -0.101037
  603         h1     21    bbb    H15    603 0.25637600   1.008000   ; qtot 0.155339
  604         h1     21    bbb    H16    604 0.25637600   1.008000   ; qtot 0.411715
  605         c3     21    bbb     C9    605 -0.72423400  12.010000   ; qtot -0.312519
  606         h1     21    bbb    H17    606 0.25637600   1.008000   ; qtot -0.056143
  607         h1     21    bbb    H18    607 0.25637600   1.008000   ; qtot 0.200233
  608         os     21    bbb     O1    608 -0.20025300  16.000000   ; qtot -0.000020
; residue   22 bbb rtp bbb q -0.0
  609         n3     22    bbb     N1    609 -0.59685800  14.010000   ; qtot -0.596878
  610         c3     22    bbb     C1    610 0.10137000  12.010000   ; qtot -0.495508
  611         h1     22    bbb     H1    611 0.04411300   1.008000   ; qtot -0.451395
  612         h1     22    bbb     H2    612 0.04411300   1.008000   ; qtot -0.407282
  613         c3     22    bbb     C2    613 0.10137000  12.010000   ; qtot -0.305912
  614         h1     22    bbb     H3    614 0.04411300   1.008000   ; qtot -0.261799
  615         h1     22    bbb     H4    615 0.04411300   1.008000   ; qtot -0.217686
  616         c3     22    bbb     C3    616 -0.00195300  12.010000   ; qtot -0.219639
  617         h1     22    bbb     H5    617 0.05064400   1.008000   ; qtot -0.168995
  618         h1     22    bbb     H6    618 0.05064400   1.008000   ; qtot -0.118351
  619         c3     22    bbb     C4    619 -0.01612100  12.010000   ; qtot -0.134472
  620         hc     22    bbb     H7    620 0.04936100   1.008000   ; qtot -0.085111
  621         hc     22    bbb     H8    621 0.04936100   1.008000   ; qtot -0.035750
  622         c3     22    bbb     C5    622 0.11363000  12.010000   ; qtot 0.077880
  623         hc     22    bbb     H9    623 0.06265900   1.008000   ; qtot 0.140539
  624         hc     22    bbb    H10    624 0.06265900   1.008000   ; qtot 0.203198
  625         c3     22    bbb     C6    625 0.11363000  12.010000   ; qtot 0.316828
  626         hc     22    bbb    H11    626 0.06265900   1.008000   ; qtot 0.379487
  627         hc     22    bbb    H12    627 0.06265900   1.008000   ; qtot 0.442146
  628         c3     22    bbb     C7    628 0.05858200  12.010000   ; qtot 0.500728
  629         h1     22    bbb    H13    629 0.06123400   1.008000   ; qtot 0.561962
  630         h1     22    bbb    H14    630 0.06123400   1.008000   ; qtot 0.623196
  631         c3     22    bbb     C8    631 -0.72423400  12.010000   ; qtot -0.101038
  632         h1     22    bbb    H15    632 0.25637600   1.008000   ; qtot 0.155338
  633         h1     22    bbb    H16    633 0.25637600   1.008000   ; qtot 0.411714
  634         c3     22    bbb     C9    634 -0.72423400  12.010000   ; qtot -0.312520
  635         h1     22    bbb    H17    635 0.25637600   1.008000   ; qtot -0.056144
  636         h1     22    bbb    H18    636 0.25637600   1.008000   ; qtot 0.200232
  637         os     22    bbb     O1    637 -0.20025300  16.000000   ; qtot -0.000021
; residue   23 bbb rtp bbb q -0.0
  638         n3     23    bbb     N1    638 -0.59685800  14.010000   ; qtot -0.596879
  639         c3     23    bbb     C1    639 0.10137000  12.010000   ; qtot -0.495509
  640         h1     23    bbb     H1    640 0.04411300   1.008000   ; qtot -0.451396
  641         h1     23    bbb     H2    641 0.04411300   1.008000   ; qtot -0.407283
  642         c3     23    bbb     C2    642 0.10137000  12.010000   ; qtot -0.305913
  643         h1     23    bbb     H3    643 0.04411300   1.008000   ; qtot -0.261800
  644         h1     23    bbb     H4    644 0.04411300   1.008000   ; qtot -0.217687
  645         c3     23    bbb     C3    645 -0.00195300  12.010000   ; qtot -0.219640
  646         h1     23    bbb     H5    646 0.05064400   1.008000   ; qtot -0.168996
  647         h1     23    bbb     H6    647 0.05064400   1.008000   ; qtot -0.118352
  648         c3     23    bbb     C4    648 -0.01612100  12.010000   ; qtot -0.134473
  649         hc     23    bbb     H7    649 0.04936100   1.008000   ; qtot -0.085112
  650         hc     23    bbb     H8    650 0.04936100   1.008000   ; qtot -0.035751
  651         c3     23    bbb     C5    651 0.11363000  12.010000   ; qtot 0.077879
  652         hc     23    bbb     H9    652 0.06265900   1.008000   ; qtot 0.140538
  653         hc     23    bbb    H10    653 0.06265900   1.008000   ; qtot 0.203197
  654         c3     23    bbb     C6    654 0.11363000  12.010000   ; qtot 0.316827
  655         hc     23    bbb    H11    655 0.06265900   1.008000   ; qtot 0.379486
  656         hc     23    bbb    H12    656 0.06265900   1.008000   ; qtot 0.442145
  657         c3     23    bbb     C7    657 0.05858200  12.010000   ; qtot 0.500727
  658         h1     23    bbb    H13    658 0.06123400   1.008000   ; qtot 0.561961
  659         h1     23    bbb    H14    659 0.06123400   1.008000   ; qtot 0.623195
  660         c3     23    bbb     C8    660 -0.72423400  12.010000   ; qtot -0.101039
  661         h1     23    bbb    H15    661 0.25637600   1.008000   ; qtot 0.155337
  662         h1     23    bbb    H16    662 0.25637600   1.008000   ; qtot 0.411713
  663         c3     23    bbb     C9    663 -0.72423400  12.010000   ; qtot -0.312521
  664         h1     23    bbb    H17    664 0.25637600   1.008000   ; qtot -0.056145
  665         h1     23    bbb    H18    665 0.25637600   1.008000   ; qtot 0.200231
  666         os     23    bbb     O1    666 -0.20025300  16.000000   ; qtot -0.000022
; residue   24 bbb rtp bbb q -0.0
  667         n3     24    bbb     N1    667 -0.59685800  14.010000   ; qtot -0.596880
  668         c3     24    bbb     C1    668 0.10137000  12.010000   ; qtot -0.495510
  669         h1     24    bbb     H1    669 0.04411300   1.008000   ; qtot -0.451397
  670         h1     24    bbb     H2    670 0.04411300   1.008000   ; qtot -0.407284
  671         c3     24    bbb     C2    671 0.10137000  12.010000   ; qtot -0.305914
  672         h1     24    bbb     H3    672 0.04411300   1.008000   ; qtot -0.261801
  673         h1     24    bbb     H4    673 0.04411300   1.008000   ; qtot -0.217688
  674         c3     24    bbb     C3    674 -0.00195300  12.010000   ; qtot -0.219641
  675         h1     24    bbb     H5    675 0.05064400   1.008000   ; qtot -0.168997
  676         h1     24    bbb     H6    676 0.05064400   1.008000   ; qtot -0.118353
  677         c3     24    bbb     C4    677 -0.01612100  12.010000   ; qtot -0.134474
  678         hc     24    bbb     H7    678 0.04936100   1.008000   ; qtot -0.085113
  679         hc     24    bbb     H8    679 0.04936100   1.008000   ; qtot -0.035752
  680         c3     24    bbb     C5    680 0.11363000  12.010000   ; qtot 0.077878
  681         hc     24    bbb     H9    681 0.06265900   1.008000   ; qtot 0.140537
  682         hc     24    bbb    H10    682 0.06265900   1.008000   ; qtot 0.203196
  683         c3     24    bbb     C6    683 0.11363000  12.010000   ; qtot 0.316826
  684         hc     24    bbb    H11    684 0.06265900   1.008000   ; qtot 0.379485
  685         hc     24    bbb    H12    685 0.06265900   1.008000   ; qtot 0.442144
  686         c3     24    bbb     C7    686 0.05858200  12.010000   ; qtot 0.500726
  687         h1     24    bbb    H13    687 0.06123400   1.008000   ; qtot 0.561960
  688         h1     24    bbb    H14    688 0.06123400   1.008000   ; qtot 0.623194
  689         c3     24    bbb     C8    689 -0.72423400  12.010000   ; qtot -0.101040
  690         h1     24    bbb    H15    690 0.25637600   1.008000   ; qtot 0.155336
  691         h1     24    bbb    H16    691 0.25637600   1.008000   ; qtot 0.411712
  692         c3     24    bbb     C9    692 -0.72423400  12.010000   ; qtot -0.312522
  693         h1     24    bbb    H17    693 0.25637600   1.008000   ; qtot -0.056146
  694         h1     24    bbb    H18    694 0.25637600   1.008000   ; qtot 0.200230
  695         os     24    bbb     O1    695 -0.20025300  16.000000   ; qtot -0.000023
; residue   25 bbb rtp bbb q -0.0
  696         n3     25    bbb     N1    696 -0.59685800  14.010000   ; qtot -0.596881
  697         c3     25    bbb     C1    697 0.10137000  12.010000   ; qtot -0.495511
  698         h1     25    bbb     H1    698 0.04411300   1.008000   ; qtot -0.451398
  699         h1     25    bbb     H2    699 0.04411300   1.008000   ; qtot -0.407285
  700         c3     25    bbb     C2    700 0.10137000  12.010000   ; qtot -0.305915
  701         h1     25    bbb     H3    701 0.04411300   1.008000   ; qtot -0.261802
  702         h1     25    bbb     H4    702 0.04411300   1.008000   ; qtot -0.217689
  703         c3     25    bbb     C3    703 -0.00195300  12.010000   ; qtot -0.219642
  704         h1     25    bbb     H5    704 0.05064400   1.008000   ; qtot -0.168998
  705         h1     25    bbb     H6    705 0.05064400   1.008000   ; qtot -0.118354
  706         c3     25    bbb     C4    706 -0.01612100  12.010000   ; qtot -0.134475
  707         hc     25    bbb     H7    707 0.04936100   1.008000   ; qtot -0.085114
  708         hc     25    bbb     H8    708 0.04936100   1.008000   ; qtot -0.035753
  709         c3     25    bbb     C5    709 0.11363000  12.010000   ; qtot 0.077877
  710         hc     25    bbb     H9    710 0.06265900   1.008000   ; qtot 0.140536
  711         hc     25    bbb    H10    711 0.06265900   1.008000   ; qtot 0.203195
  712         c3     25    bbb     C6    712 0.11363000  12.010000   ; qtot 0.316825
  713         hc     25    bbb    H11    713 0.06265900   1.008000   ; qtot 0.379484
  714         hc     25    bbb    H12    714 0.06265900   1.008000   ; qtot 0.442143
  715         c3     25    bbb     C7    715 0.05858200  12.010000   ; qtot 0.500725
  716         h1     25    bbb    H13    716 0.06123400   1.008000   ; qtot 0.561959
  717         h1     25    bbb    H14    717 0.06123400   1.008000   ; qtot 0.623193
  718         c3     25    bbb     C8    718 -0.72423400  12.010000   ; qtot -0.101041
  719         h1     25    bbb    H15    719 0.25637600   1.008000   ; qtot 0.155335
  720         h1     25    bbb    H16    720 0.25637600   1.008000   ; qtot 0.411711
  721         c3     25    bbb     C9    721 -0.72423400  12.010000   ; qtot -0.312523
  722         h1     25    bbb    H17    722 0.25637600   1.008000   ; qtot -0.056147
  723         h1     25    bbb    H18    723 0.25637600   1.008000   ; qtot 0.200229
  724         os     25    bbb     O1    724 -0.20025300  16.000000   ; qtot -0.000024
; residue   26 bbb rtp bbb q -0.0
  725         n3     26    bbb     N1    725 -0.59685800  14.010000   ; qtot -0.596882
  726         c3     26    bbb     C1    726 0.10137000  12.010000   ; qtot -0.495512
  727         h1     26    bbb     H1    727 0.04411300   1.008000   ; qtot -0.451399
  728         h1     26    bbb     H2    728 0.04411300   1.008000   ; qtot -0.407286
  729         c3     26    bbb     C2    729 0.10137000  12.010000   ; qtot -0.305916
  730         h1     26    bbb     H3    730 0.04411300   1.008000   ; qtot -0.261803
  731         h1     26    bbb     H4    731 0.04411300   1.008000   ; qtot -0.217690
  732         c3     26    bbb     C3    732 -0.00195300  12.010000   ; qtot -0.219643
  733         h1     26    bbb     H5    733 0.05064400   1.008000   ; qtot -0.168999
  734         h1     26    bbb     H6    734 0.05064400   1.008000   ; qtot -0.118355
  735         c3     26    bbb     C4    735 -0.01612100  12.010000   ; qtot -0.134476
  736         hc     26    bbb     H7    736 0.04936100   1.008000   ; qtot -0.085115
  737         hc     26    bbb     H8    737 0.04936100   1.008000   ; qtot -0.035754
  738         c3     26    bbb     C5    738 0.11363000  12.010000   ; qtot 0.077876
  739         hc     26    bbb     H9    739 0.06265900   1.008000   ; qtot 0.140535
  740         hc     26    bbb    H10    740 0.06265900   1.008000   ; qtot 0.203194
  741         c3     26    bbb     C6    741 0.11363000  12.010000   ; qtot 0.316824
  742         hc     26    bbb    H11    742 0.06265900   1.008000   ; qtot 0.379483
  743         hc     26    bbb    H12    743 0.06265900   1.008000   ; qtot 0.442142
  744         c3     26    bbb     C7    744 0.05858200  12.010000   ; qtot 0.500724
  745         h1     26    bbb    H13    745 0.06123400   1.008000   ; qtot 0.561958
  746         h1     26    bbb    H14    746 0.06123400   1.008000   ; qtot 0.623192
  747         c3     26    bbb     C8    747 -0.72423400  12.010000   ; qtot -0.101042
  748         h1     26    bbb    H15    748 0.25637600   1.008000   ; qtot 0.155334
  749         h1     26    bbb    H16    749 0.25637600   1.008000   ; qtot 0.411710
  750         c3     26    bbb     C9    750 -0.72423400  12.010000   ; qtot -0.312524
  751         h1     26    bbb    H17    751 0.25637600   1.008000   ; qtot -0.056148
  752         h1     26    bbb    H18    752 0.25637600   1.008000   ; qtot 0.200228
  753         os     26    bbb     O1    753 -0.20025300  16.000000   ; qtot -0.000025
; residue   27 bbb rtp bbb q -0.0
  754         n3     27    bbb     N1    754 -0.59685800  14.010000   ; qtot -0.596883
  755         c3     27    bbb     C1    755 0.10137000  12.010000   ; qtot -0.495513
  756         h1     27    bbb     H1    756 0.04411300   1.008000   ; qtot -0.451400
  757         h1     27    bbb     H2    757 0.04411300   1.008000   ; qtot -0.407287
  758         c3     27    bbb     C2    758 0.10137000  12.010000   ; qtot -0.305917
  759         h1     27    bbb     H3    759 0.04411300   1.008000   ; qtot -0.261804
  760         h1     27    bbb     H4    760 0.04411300   1.008000   ; qtot -0.217691
  761         c3     27    bbb     C3    761 -0.00195300  12.010000   ; qtot -0.219644
  762         h1     27    bbb     H5    762 0.05064400   1.008000   ; qtot -0.169000
  763         h1     27    bbb     H6    763 0.05064400   1.008000   ; qtot -0.118356
  764         c3     27    bbb     C4    764 -0.01612100  12.010000   ; qtot -0.134477
  765         hc     27    bbb     H7    765 0.04936100   1.008000   ; qtot -0.085116
  766         hc     27    bbb     H8    766 0.04936100   1.008000   ; qtot -0.035755
  767         c3     27    bbb     C5    767 0.11363000  12.010000   ; qtot 0.077875
  768         hc     27    bbb     H9    768 0.06265900   1.008000   ; qtot 0.140534
  769         hc     27    bbb    H10    769 0.06265900   1.008000   ; qtot 0.203193
  770         c3     27    bbb     C6    770 0.11363000  12.010000   ; qtot 0.316823
  771         hc     27    bbb    H11    771 0.06265900   1.008000   ; qtot 0.379482
  772         hc     27    bbb    H12    772 0.06265900   1.008000   ; qtot 0.442141
  773         c3     27    bbb     C7    773 0.05858200  12.010000   ; qtot 0.500723
  774         h1     27    bbb    H13    774 0.06123400   1.008000   ; qtot 0.561957
  775         h1     27    bbb    H14    775 0.06123400   1.008000   ; qtot 0.623191
  776         c3     27    bbb     C8    776 -0.72423400  12.010000   ; qtot -0.101043
  777         h1     27    bbb    H15    777 0.25637600   1.008000   ; qtot 0.155333
  778         h1     27    bbb    H16    778 0.25637600   1.008000   ; qtot 0.411709
  779         c3     27    bbb     C9    779 -0.72423400  12.010000   ; qtot -0.312525
  780         h1     27    bbb    H17    780 0.25637600   1.008000   ; qtot -0.056149
  781         h1     27    bbb    H18    781 0.25637600   1.008000   ; qtot 0.200227
  782         os     27    bbb     O1    782 -0.20025300  16.000000   ; qtot -0.000026
; residue   28 bbb rtp bbb q -0.0
  783         n3     28    bbb     N1    783 -0.59685800  14.010000   ; qtot -0.596884
  784         c3     28    bbb     C1    784 0.10137000  12.010000   ; qtot -0.495514
  785         h1     28    bbb     H1    785 0.04411300   1.008000   ; qtot -0.451401
  786         h1     28    bbb     H2    786 0.04411300   1.008000   ; qtot -0.407288
  787         c3     28    bbb     C2    787 0.10137000  12.010000   ; qtot -0.305918
  788         h1     28    bbb     H3    788 0.04411300   1.008000   ; qtot -0.261805
  789         h1     28    bbb     H4    789 0.04411300   1.008000   ; qtot -0.217692
  790         c3     28    bbb     C3    790 -0.00195300  12.010000   ; qtot -0.219645
  791         h1     28    bbb     H5    791 0.05064400   1.008000   ; qtot -0.169001
  792         h1     28    bbb     H6    792 0.05064400   1.008000   ; qtot -0.118357
  793         c3     28    bbb     C4    793 -0.01612100  12.010000   ; qtot -0.134478
  794         hc     28    bbb     H7    794 0.04936100   1.008000   ; qtot -0.085117
  795         hc     28    bbb     H8    795 0.04936100   1.008000   ; qtot -0.035756
  796         c3     28    bbb     C5    796 0.11363000  12.010000   ; qtot 0.077874
  797         hc     28    bbb     H9    797 0.06265900   1.008000   ; qtot 0.140533
  798         hc     28    bbb    H10    798 0.06265900   1.008000   ; qtot 0.203192
  799         c3     28    bbb     C6    799 0.11363000  12.010000   ; qtot 0.316822
  800         hc     28    bbb    H11    800 0.06265900   1.008000   ; qtot 0.379481
  801         hc     28    bbb    H12    801 0.06265900   1.008000   ; qtot 0.442140
  802         c3     28    bbb     C7    802 0.05858200  12.010000   ; qtot 0.500722
  803         h1     28    bbb    H13    803 0.06123400   1.008000   ; qtot 0.561956
  804         h1     28    bbb    H14    804 0.06123400   1.008000   ; qtot 0.623190
  805         c3     28    bbb     C8    805 -0.72423400  12.010000   ; qtot -0.101044
  806         h1     28    bbb    H15    806 0.25637600   1.008000   ; qtot 0.155332
  807         h1     28    bbb    H16    807 0.25637600   1.008000   ; qtot 0.411708
  808         c3     28    bbb     C9    808 -0.72423400  12.010000   ; qtot -0.312526
  809         h1     28    bbb    H17    809 0.25637600   1.008000   ; qtot -0.056150
  810         h1     28    bbb    H18    810 0.25637600   1.008000   ; qtot 0.200226
  811         os     28    bbb     O1    811 -0.20025300  16.000000   ; qtot -0.000027
; residue   29 bbb rtp bbb q -0.0
  812         n3     29    bbb     N1    812 -0.59685800  14.010000   ; qtot -0.596885
  813         c3     29    bbb     C1    813 0.10137000  12.010000   ; qtot -0.495515
  814         h1     29    bbb     H1    814 0.04411300   1.008000   ; qtot -0.451402
  815         h1     29    bbb     H2    815 0.04411300   1.008000   ; qtot -0.407289
  816         c3     29    bbb     C2    816 0.10137000  12.010000   ; qtot -0.305919
  817         h1     29    bbb     H3    817 0.04411300   1.008000   ; qtot -0.261806
  818         h1     29    bbb     H4    818 0.04411300   1.008000   ; qtot -0.217693
  819         c3     29    bbb     C3    819 -0.00195300  12.010000   ; qtot -0.219646
  820         h1     29    bbb     H5    820 0.05064400   1.008000   ; qtot -0.169002
  821         h1     29    bbb     H6    821 0.05064400   1.008000   ; qtot -0.118358
  822         c3     29    bbb     C4    822 -0.01612100  12.010000   ; qtot -0.134479
  823         hc     29    bbb     H7    823 0.04936100   1.008000   ; qtot -0.085118
  824         hc     29    bbb     H8    824 0.04936100   1.008000   ; qtot -0.035757
  825         c3     29    bbb     C5    825 0.11363000  12.010000   ; qtot 0.077873
  826         hc     29    bbb     H9    826 0.06265900   1.008000   ; qtot 0.140532
  827         hc     29    bbb    H10    827 0.06265900   1.008000   ; qtot 0.203191
  828         c3     29    bbb     C6    828 0.11363000  12.010000   ; qtot 0.316821
  829         hc     29    bbb    H11    829 0.06265900   1.008000   ; qtot 0.379480
  830         hc     29    bbb    H12    830 0.06265900   1.008000   ; qtot 0.442139
  831         c3     29    bbb     C7    831 0.05858200  12.010000   ; qtot 0.500721
  832         h1     29    bbb    H13    832 0.06123400   1.008000   ; qtot 0.561955
  833         h1     29    bbb    H14    833 0.06123400   1.008000   ; qtot 0.623189
  834         c3     29    bbb     C8    834 -0.72423400  12.010000   ; qtot -0.101045
  835         h1     29    bbb    H15    835 0.25637600   1.008000   ; qtot 0.155331
  836         h1     29    bbb    H16    836 0.25637600   1.008000   ; qtot 0.411707
  837         c3     29    bbb     C9    837 -0.72423400  12.010000   ; qtot -0.312527
  838         h1     29    bbb    H17    838 0.25637600   1.008000   ; qtot -0.056151
  839         h1     29    bbb    H18    839 0.25637600   1.008000   ; qtot 0.200225
  840         os     29    bbb     O1    840 -0.20025300  16.000000   ; qtot -0.000028
; residue   30 bbb rtp bbb q -0.0
  841         n3     30    bbb     N1    841 -0.59685800  14.010000   ; qtot -0.596886
  842         c3     30    bbb     C1    842 0.10137000  12.010000   ; qtot -0.495516
  843         h1     30    bbb     H1    843 0.04411300   1.008000   ; qtot -0.451403
  844         h1     30    bbb     H2    844 0.04411300   1.008000   ; qtot -0.407290
  845         c3     30    bbb     C2    845 0.10137000  12.010000   ; qtot -0.305920
  846         h1     30    bbb     H3    846 0.04411300   1.008000   ; qtot -0.261807
  847         h1     30    bbb     H4    847 0.04411300   1.008000   ; qtot -0.217694
  848         c3     30    bbb     C3    848 -0.00195300  12.010000   ; qtot -0.219647
  849         h1     30    bbb     H5    849 0.05064400   1.008000   ; qtot -0.169003
  850         h1     30    bbb     H6    850 0.05064400   1.008000   ; qtot -0.118359
  851         c3     30    bbb     C4    851 -0.01612100  12.010000   ; qtot -0.134480
  852         hc     30    bbb     H7    852 0.04936100   1.008000   ; qtot -0.085119
  853         hc     30    bbb     H8    853 0.04936100   1.008000   ; qtot -0.035758
  854         c3     30    bbb     C5    854 0.11363000  12.010000   ; qtot 0.077872
  855         hc     30    bbb     H9    855 0.06265900   1.008000   ; qtot 0.140531
  856         hc     30    bbb    H10    856 0.06265900   1.008000   ; qtot 0.203190
  857         c3     30    bbb     C6    857 0.11363000  12.010000   ; qtot 0.316820
  858         hc     30    bbb    H11    858 0.06265900   1.008000   ; qtot 0.379479
  859         hc     30    bbb    H12    859 0.06265900   1.008000   ; qtot 0.442138
  860         c3     30    bbb     C7    860 0.05858200  12.010000   ; qtot 0.500720
  861         h1     30    bbb    H13    861 0.06123400   1.008000   ; qtot 0.561954
  862         h1     30    bbb    H14    862 0.06123400   1.008000   ; qtot 0.623188
  863         c3     30    bbb     C8    863 -0.72423400  12.010000   ; qtot -0.101046
  864         h1     30    bbb    H15    864 0.25637600   1.008000   ; qtot 0.155330
  865         h1     30    bbb    H16    865 0.25637600   1.008000   ; qtot 0.411706
  866         c3     30    bbb     C9    866 -0.72423400  12.010000   ; qtot -0.312528
  867         h1     30    bbb    H17    867 0.25637600   1.008000   ; qtot -0.056152
  868         h1     30    bbb    H18    868 0.25637600   1.008000   ; qtot 0.200224
  869         os     30    bbb     O1    869 -0.20025300  16.000000   ; qtot -0.000029
; residue   31 bbb rtp bbb q -0.0
  870         n3     31    bbb     N1    870 -0.59685800  14.010000   ; qtot -0.596887
  871         c3     31    bbb     C1    871 0.10137000  12.010000   ; qtot -0.495517
  872         h1     31    bbb     H1    872 0.04411300   1.008000   ; qtot -0.451404
  873         h1     31    bbb     H2    873 0.04411300   1.008000   ; qtot -0.407291
  874         c3     31    bbb     C2    874 0.10137000  12.010000   ; qtot -0.305921
  875         h1     31    bbb     H3    875 0.04411300   1.008000   ; qtot -0.261808
  876         h1     31    bbb     H4    876 0.04411300   1.008000   ; qtot -0.217695
  877         c3     31    bbb     C3    877 -0.00195300  12.010000   ; qtot -0.219648
  878         h1     31    bbb     H5    878 0.05064400   1.008000   ; qtot -0.169004
  879         h1     31    bbb     H6    879 0.05064400   1.008000   ; qtot -0.118360
  880         c3     31    bbb     C4    880 -0.01612100  12.010000   ; qtot -0.134481
  881         hc     31    bbb     H7    881 0.04936100   1.008000   ; qtot -0.085120
  882         hc     31    bbb     H8    882 0.04936100   1.008000   ; qtot -0.035759
  883         c3     31    bbb     C5    883 0.11363000  12.010000   ; qtot 0.077871
  884         hc     31    bbb     H9    884 0.06265900   1.008000   ; qtot 0.140530
  885         hc     31    bbb    H10    885 0.06265900   1.008000   ; qtot 0.203189
  886         c3     31    bbb     C6    886 0.11363000  12.010000   ; qtot 0.316819
  887         hc     31    bbb    H11    887 0.06265900   1.008000   ; qtot 0.379478
  888         hc     31    bbb    H12    888 0.06265900   1.008000   ; qtot 0.442137
  889         c3     31    bbb     C7    889 0.05858200  12.010000   ; qtot 0.500719
  890         h1     31    bbb    H13    890 0.06123400   1.008000   ; qtot 0.561953
  891         h1     31    bbb    H14    891 0.06123400   1.008000   ; qtot 0.623187
  892         c3     31    bbb     C8    892 -0.72423400  12.010000   ; qtot -0.101047
  893         h1     31    bbb    H15    893 0.25637600   1.008000   ; qtot 0.155329
  894         h1     31    bbb    H16    894 0.25637600   1.008000   ; qtot 0.411705
  895         c3     31    bbb     C9    895 -0.72423400  12.010000   ; qtot -0.312529
  896         h1     31    bbb    H17    896 0.25637600   1.008000   ; qtot -0.056153
  897         h1     31    bbb    H18    897 0.25637600   1.008000   ; qtot 0.200223
  898         os     31    bbb     O1    898 -0.20025300  16.000000   ; qtot -0.000030
; residue   32 bbb rtp bbb q -0.0
  899         n3     32    bbb     N1    899 -0.59685800  14.010000   ; qtot -0.596888
  900         c3     32    bbb     C1    900 0.10137000  12.010000   ; qtot -0.495518
  901         h1     32    bbb     H1    901 0.04411300   1.008000   ; qtot -0.451405
  902         h1     32    bbb     H2    902 0.04411300   1.008000   ; qtot -0.407292
  903         c3     32    bbb     C2    903 0.10137000  12.010000   ; qtot -0.305922
  904         h1     32    bbb     H3    904 0.04411300   1.008000   ; qtot -0.261809
  905         h1     32    bbb     H4    905 0.04411300   1.008000   ; qtot -0.217696
  906         c3     32    bbb     C3    906 -0.00195300  12.010000   ; qtot -0.219649
  907         h1     32    bbb     H5    907 0.05064400   1.008000   ; qtot -0.169005
  908         h1     32    bbb     H6    908 0.05064400   1.008000   ; qtot -0.118361
  909         c3     32    bbb     C4    909 -0.01612100  12.010000   ; qtot -0.134482
  910         hc     32    bbb     H7    910 0.04936100   1.008000   ; qtot -0.085121
  911         hc     32    bbb     H8    911 0.04936100   1.008000   ; qtot -0.035760
  912         c3     32    bbb     C5    912 0.11363000  12.010000   ; qtot 0.077870
  913         hc     32    bbb     H9    913 0.06265900   1.008000   ; qtot 0.140529
  914         hc     32    bbb    H10    914 0.06265900   1.008000   ; qtot 0.203188
  915         c3     32    bbb     C6    915 0.11363000  12.010000   ; qtot 0.316818
  916         hc     32    bbb    H11    916 0.06265900   1.008000   ; qtot 0.379477
  917         hc     32    bbb    H12    917 0.06265900   1.008000   ; qtot 0.442136
  918         c3     32    bbb     C7    918 0.05858200  12.010000   ; qtot 0.500718
  919         h1     32    bbb    H13    919 0.06123400   1.008000   ; qtot 0.561952
  920         h1     32    bbb    H14    920 0.06123400   1.008000   ; qtot 0.623186
  921         c3     32    bbb     C8    921 -0.72423400  12.010000   ; qtot -0.101048
  922         h1     32    bbb    H15    922 0.25637600   1.008000   ; qtot 0.155328
  923         h1     32    bbb    H16    923 0.25637600   1.008000   ; qtot 0.411704
  924         c3     32    bbb     C9    924 -0.72423400  12.010000   ; qtot -0.312530
  925         h1     32    bbb    H17    925 0.25637600   1.008000   ; qtot -0.056154
  926         h1     32    bbb    H18    926 0.25637600   1.008000   ; qtot 0.200222
  927         os     32    bbb     O1    927 -0.20025300  16.000000   ; qtot -0.000031
; residue   33 bbb rtp bbb q -0.0
  928         n3     33    bbb     N1    928 -0.59685800  14.010000   ; qtot -0.596889
  929         c3     33    bbb     C1    929 0.10137000  12.010000   ; qtot -0.495519
  930         h1     33    bbb     H1    930 0.04411300   1.008000   ; qtot -0.451406
  931         h1     33    bbb     H2    931 0.04411300   1.008000   ; qtot -0.407293
  932         c3     33    bbb     C2    932 0.10137000  12.010000   ; qtot -0.305923
  933         h1     33    bbb     H3    933 0.04411300   1.008000   ; qtot -0.261810
  934         h1     33    bbb     H4    934 0.04411300   1.008000   ; qtot -0.217697
  935         c3     33    bbb     C3    935 -0.00195300  12.010000   ; qtot -0.219650
  936         h1     33    bbb     H5    936 0.05064400   1.008000   ; qtot -0.169006
  937         h1     33    bbb     H6    937 0.05064400   1.008000   ; qtot -0.118362
  938         c3     33    bbb     C4    938 -0.01612100  12.010000   ; qtot -0.134483
  939         hc     33    bbb     H7    939 0.04936100   1.008000   ; qtot -0.085122
  940         hc     33    bbb     H8    940 0.04936100   1.008000   ; qtot -0.035761
  941         c3     33    bbb     C5    941 0.11363000  12.010000   ; qtot 0.077869
  942         hc     33    bbb     H9    942 0.06265900   1.008000   ; qtot 0.140528
  943         hc     33    bbb    H10    943 0.06265900   1.008000   ; qtot 0.203187
  944         c3     33    bbb     C6    944 0.11363000  12.010000   ; qtot 0.316817
  945         hc     33    bbb    H11    945 0.06265900   1.008000   ; qtot 0.379476
  946         hc     33    bbb    H12    946 0.06265900   1.008000   ; qtot 0.442135
  947         c3     33    bbb     C7    947 0.05858200  12.010000   ; qtot 0.500717
  948         h1     33    bbb    H13    948 0.06123400   1.008000   ; qtot 0.561951
  949         h1     33    bbb    H14    949 0.06123400   1.008000   ; qtot 0.623185
  950         c3     33    bbb     C8    950 -0.72423400  12.010000   ; qtot -0.101049
  951         h1     33    bbb    H15    951 0.25637600   1.008000   ; qtot 0.155327
  952         h1     33    bbb    H16    952 0.25637600   1.008000   ; qtot 0.411703
  953         c3     33    bbb     C9    953 -0.72423400  12.010000   ; qtot -0.312531
  954         h1     33    bbb    H17    954 0.25637600   1.008000   ; qtot -0.056155
  955         h1     33    bbb    H18    955 0.25637600   1.008000   ; qtot 0.200221
  956         os     33    bbb     O1    956 -0.20025300  16.000000   ; qtot -0.000032
; residue   34 bbb rtp bbb q -0.0
  957         n3     34    bbb     N1    957 -0.59685800  14.010000   ; qtot -0.596890
  958         c3     34    bbb     C1    958 0.10137000  12.010000   ; qtot -0.495520
  959         h1     34    bbb     H1    959 0.04411300   1.008000   ; qtot -0.451407
  960         h1     34    bbb     H2    960 0.04411300   1.008000   ; qtot -0.407294
  961         c3     34    bbb     C2    961 0.10137000  12.010000   ; qtot -0.305924
  962         h1     34    bbb     H3    962 0.04411300   1.008000   ; qtot -0.261811
  963         h1     34    bbb     H4    963 0.04411300   1.008000   ; qtot -0.217698
  964         c3     34    bbb     C3    964 -0.00195300  12.010000   ; qtot -0.219651
  965         h1     34    bbb     H5    965 0.05064400   1.008000   ; qtot -0.169007
  966         h1     34    bbb     H6    966 0.05064400   1.008000   ; qtot -0.118363
  967         c3     34    bbb     C4    967 -0.01612100  12.010000   ; qtot -0.134484
  968         hc     34    bbb     H7    968 0.04936100   1.008000   ; qtot -0.085123
  969         hc     34    bbb     H8    969 0.04936100   1.008000   ; qtot -0.035762
  970         c3     34    bbb     C5    970 0.11363000  12.010000   ; qtot 0.077868
  971         hc     34    bbb     H9    971 0.06265900   1.008000   ; qtot 0.140527
  972         hc     34    bbb    H10    972 0.06265900   1.008000   ; qtot 0.203186
  973         c3     34    bbb     C6    973 0.11363000  12.010000   ; qtot 0.316816
  974         hc     34    bbb    H11    974 0.06265900   1.008000   ; qtot 0.379475
  975         hc     34    bbb    H12    975 0.06265900   1.008000   ; qtot 0.442134
  976         c3     34    bbb     C7    976 0.05858200  12.010000   ; qtot 0.500716
  977         h1     34    bbb    H13    977 0.06123400   1.008000   ; qtot 0.561950
  978         h1     34    bbb    H14    978 0.06123400   1.008000   ; qtot 0.623184
  979         c3     34    bbb     C8    979 -0.72423400  12.010000   ; qtot -0.101050
  980         h1     34    bbb    H15    980 0.25637600   1.008000   ; qtot 0.155326
  981         h1     34    bbb    H16    981 0.25637600   1.008000   ; qtot 0.411702
  982         c3     34    bbb     C9    982 -0.72423400  12.010000   ; qtot -0.312532
  983         h1     34    bbb    H17    983 0.25637600   1.008000   ; qtot -0.056156
  984         h1     34    bbb    H18    984 0.25637600   1.008000   ; qtot 0.200220
  985         os     34    bbb     O1    985 -0.20025300  16.000000   ; qtot -0.000033
; residue   35 bbb rtp bbb q -0.0
  986         n3     35    bbb     N1    986 -0.59685800  14.010000   ; qtot -0.596891
  987         c3     35    bbb     C1    987 0.10137000  12.010000   ; qtot -0.495521
  988         h1     35    bbb     H1    988 0.04411300   1.008000   ; qtot -0.451408
  989         h1     35    bbb     H2    989 0.04411300   1.008000   ; qtot -0.407295
  990         c3     35    bbb     C2    990 0.10137000  12.010000   ; qtot -0.305925
  991         h1     35    bbb     H3    991 0.04411300   1.008000   ; qtot -0.261812
  992         h1     35    bbb     H4    992 0.04411300   1.008000   ; qtot -0.217699
  993         c3     35    bbb     C3    993 -0.00195300  12.010000   ; qtot -0.219652
  994         h1     35    bbb     H5    994 0.05064400   1.008000   ; qtot -0.169008
  995         h1     35    bbb     H6    995 0.05064400   1.008000   ; qtot -0.118364
  996         c3     35    bbb     C4    996 -0.01612100  12.010000   ; qtot -0.134485
  997         hc     35    bbb     H7    997 0.04936100   1.008000   ; qtot -0.085124
  998         hc     35    bbb     H8    998 0.04936100   1.008000   ; qtot -0.035763
  999         c3     35    bbb     C5    999 0.11363000  12.010000   ; qtot 0.077867
 1000         hc     35    bbb     H9   1000 0.06265900   1.008000   ; qtot 0.140526
 1001         hc     35    bbb    H10   1001 0.06265900   1.008000   ; qtot 0.203185
 1002         c3     35    bbb     C6   1002 0.11363000  12.010000   ; qtot 0.316815
 1003         hc     35    bbb    H11   1003 0.06265900   1.008000   ; qtot 0.379474
 1004         hc     35    bbb    H12   1004 0.06265900   1.008000   ; qtot 0.442133
 1005         c3     35    bbb     C7   1005 0.05858200  12.010000   ; qtot 0.500715
 1006         h1     35    bbb    H13   1006 0.06123400   1.008000   ; qtot 0.561949
 1007         h1     35    bbb    H14   1007 0.06123400   1.008000   ; qtot 0.623183
 1008         c3     35    bbb     C8   1008 -0.72423400  12.010000   ; qtot -0.101051
 1009         h1     35    bbb    H15   1009 0.25637600   1.008000   ; qtot 0.155325
 1010         h1     35    bbb    H16   1010 0.25637600   1.008000   ; qtot 0.411701
 1011         c3     35    bbb     C9   1011 -0.72423400  12.010000   ; qtot -0.312533
 1012         h1     35    bbb    H17   1012 0.25637600   1.008000   ; qtot -0.056157
 1013         h1     35    bbb    H18   1013 0.25637600   1.008000   ; qtot 0.200219
 1014         os     35    bbb     O1   1014 -0.20025300  16.000000   ; qtot -0.000034
; residue   36 bbb rtp bbb q -0.0
 1015         n3     36    bbb     N1   1015 -0.59685800  14.010000   ; qtot -0.596892
 1016         c3     36    bbb     C1   1016 0.10137000  12.010000   ; qtot -0.495522
 1017         h1     36    bbb     H1   1017 0.04411300   1.008000   ; qtot -0.451409
 1018         h1     36    bbb     H2   1018 0.04411300   1.008000   ; qtot -0.407296
 1019         c3     36    bbb     C2   1019 0.10137000  12.010000   ; qtot -0.305926
 1020         h1     36    bbb     H3   1020 0.04411300   1.008000   ; qtot -0.261813
 1021         h1     36    bbb     H4   1021 0.04411300   1.008000   ; qtot -0.217700
 1022         c3     36    bbb     C3   1022 -0.00195300  12.010000   ; qtot -0.219653
 1023         h1     36    bbb     H5   1023 0.05064400   1.008000   ; qtot -0.169009
 1024         h1     36    bbb     H6   1024 0.05064400   1.008000   ; qtot -0.118365
 1025         c3     36    bbb     C4   1025 -0.01612100  12.010000   ; qtot -0.134486
 1026         hc     36    bbb     H7   1026 0.04936100   1.008000   ; qtot -0.085125
 1027         hc     36    bbb     H8   1027 0.04936100   1.008000   ; qtot -0.035764
 1028         c3     36    bbb     C5   1028 0.11363000  12.010000   ; qtot 0.077866
 1029         hc     36    bbb     H9   1029 0.06265900   1.008000   ; qtot 0.140525
 1030         hc     36    bbb    H10   1030 0.06265900   1.008000   ; qtot 0.203184
 1031         c3     36    bbb     C6   1031 0.11363000  12.010000   ; qtot 0.316814
 1032         hc     36    bbb    H11   1032 0.06265900   1.008000   ; qtot 0.379473
 1033         hc     36    bbb    H12   1033 0.06265900   1.008000   ; qtot 0.442132
 1034         c3     36    bbb     C7   1034 0.05858200  12.010000   ; qtot 0.500714
 1035         h1     36    bbb    H13   1035 0.06123400   1.008000   ; qtot 0.561948
 1036         h1     36    bbb    H14   1036 0.06123400   1.008000   ; qtot 0.623182
 1037         c3     36    bbb     C8   1037 -0.72423400  12.010000   ; qtot -0.101052
 1038         h1     36    bbb    H15   1038 0.25637600   1.008000   ; qtot 0.155324
 1039         h1     36    bbb    H16   1039 0.25637600   1.008000   ; qtot 0.411700
 1040         c3     36    bbb     C9   1040 -0.72423400  12.010000   ; qtot -0.312534
 1041         h1     36    bbb    H17   1041 0.25637600   1.008000   ; qtot -0.056158
 1042         h1     36    bbb    H18   1042 0.25637600   1.008000   ; qtot 0.200218
 1043         os     36    bbb     O1   1043 -0.20025300  16.000000   ; qtot -0.000035
; residue   37 bbb rtp bbb q -0.0
 1044         n3     37    bbb     N1   1044 -0.59685800  14.010000   ; qtot -0.596893
 1045         c3     37    bbb     C1   1045 0.10137000  12.010000   ; qtot -0.495523
 1046         h1     37    bbb     H1   1046 0.04411300   1.008000   ; qtot -0.451410
 1047         h1     37    bbb     H2   1047 0.04411300   1.008000   ; qtot -0.407297
 1048         c3     37    bbb     C2   1048 0.10137000  12.010000   ; qtot -0.305927
 1049         h1     37    bbb     H3   1049 0.04411300   1.008000   ; qtot -0.261814
 1050         h1     37    bbb     H4   1050 0.04411300   1.008000   ; qtot -0.217701
 1051         c3     37    bbb     C3   1051 -0.00195300  12.010000   ; qtot -0.219654
 1052         h1     37    bbb     H5   1052 0.05064400   1.008000   ; qtot -0.169010
 1053         h1     37    bbb     H6   1053 0.05064400   1.008000   ; qtot -0.118366
 1054         c3     37    bbb     C4   1054 -0.01612100  12.010000   ; qtot -0.134487
 1055         hc     37    bbb     H7   1055 0.04936100   1.008000   ; qtot -0.085126
 1056         hc     37    bbb     H8   1056 0.04936100   1.008000   ; qtot -0.035765
 1057         c3     37    bbb     C5   1057 0.11363000  12.010000   ; qtot 0.077865
 1058         hc     37    bbb     H9   1058 0.06265900   1.008000   ; qtot 0.140524
 1059         hc     37    bbb    H10   1059 0.06265900   1.008000   ; qtot 0.203183
 1060         c3     37    bbb     C6   1060 0.11363000  12.010000   ; qtot 0.316813
 1061         hc     37    bbb    H11   1061 0.06265900   1.008000   ; qtot 0.379472
 1062         hc     37    bbb    H12   1062 0.06265900   1.008000   ; qtot 0.442131
 1063         c3     37    bbb     C7   1063 0.05858200  12.010000   ; qtot 0.500713
 1064         h1     37    bbb    H13   1064 0.06123400   1.008000   ; qtot 0.561947
 1065         h1     37    bbb    H14   1065 0.06123400   1.008000   ; qtot 0.623181
 1066         c3     37    bbb     C8   1066 -0.72423400  12.010000   ; qtot -0.101053
 1067         h1     37    bbb    H15   1067 0.25637600   1.008000   ; qtot 0.155323
 1068         h1     37    bbb    H16   1068 0.25637600   1.008000   ; qtot 0.411699
 1069         c3     37    bbb     C9   1069 -0.72423400  12.010000   ; qtot -0.312535
 1070         h1     37    bbb    H17   1070 0.25637600   1.008000   ; qtot -0.056159
 1071         h1     37    bbb    H18   1071 0.25637600   1.008000   ; qtot 0.200217
 1072         os     37    bbb     O1   1072 -0.20025300  16.000000   ; qtot -0.000036
; residue   38 bbb rtp bbb q -0.0
 1073         n3     38    bbb     N1   1073 -0.59685800  14.010000   ; qtot -0.596894
 1074         c3     38    bbb     C1   1074 0.10137000  12.010000   ; qtot -0.495524
 1075         h1     38    bbb     H1   1075 0.04411300   1.008000   ; qtot -0.451411
 1076         h1     38    bbb     H2   1076 0.04411300   1.008000   ; qtot -0.407298
 1077         c3     38    bbb     C2   1077 0.10137000  12.010000   ; qtot -0.305928
 1078         h1     38    bbb     H3   1078 0.04411300   1.008000   ; qtot -0.261815
 1079         h1     38    bbb     H4   1079 0.04411300   1.008000   ; qtot -0.217702
 1080         c3     38    bbb     C3   1080 -0.00195300  12.010000   ; qtot -0.219655
 1081         h1     38    bbb     H5   1081 0.05064400   1.008000   ; qtot -0.169011
 1082         h1     38    bbb     H6   1082 0.05064400   1.008000   ; qtot -0.118367
 1083         c3     38    bbb     C4   1083 -0.01612100  12.010000   ; qtot -0.134488
 1084         hc     38    bbb     H7   1084 0.04936100   1.008000   ; qtot -0.085127
 1085         hc     38    bbb     H8   1085 0.04936100   1.008000   ; qtot -0.035766
 1086         c3     38    bbb     C5   1086 0.11363000  12.010000   ; qtot 0.077864
 1087         hc     38    bbb     H9   1087 0.06265900   1.008000   ; qtot 0.140523
 1088         hc     38    bbb    H10   1088 0.06265900   1.008000   ; qtot 0.203182
 1089         c3     38    bbb     C6   1089 0.11363000  12.010000   ; qtot 0.316812
 1090         hc     38    bbb    H11   1090 0.06265900   1.008000   ; qtot 0.379471
 1091         hc     38    bbb    H12   1091 0.06265900   1.008000   ; qtot 0.442130
 1092         c3     38    bbb     C7   1092 0.05858200  12.010000   ; qtot 0.500712
 1093         h1     38    bbb    H13   1093 0.06123400   1.008000   ; qtot 0.561946
 1094         h1     38    bbb    H14   1094 0.06123400   1.008000   ; qtot 0.623180
 1095         c3     38    bbb     C8   1095 -0.72423400  12.010000   ; qtot -0.101054
 1096         h1     38    bbb    H15   1096 0.25637600   1.008000   ; qtot 0.155322
 1097         h1     38    bbb    H16   1097 0.25637600   1.008000   ; qtot 0.411698
 1098         c3     38    bbb     C9   1098 -0.72423400  12.010000   ; qtot -0.312536
 1099         h1     38    bbb    H17   1099 0.25637600   1.008000   ; qtot -0.056160
 1100         h1     38    bbb    H18   1100 0.25637600   1.008000   ; qtot 0.200216
 1101         os     38    bbb     O1   1101 -0.20025300  16.000000   ; qtot -0.000037
; residue   39 bbb rtp bbb q -0.0
 1102         n3     39    bbb     N1   1102 -0.59685800  14.010000   ; qtot -0.596895
 1103         c3     39    bbb     C1   1103 0.10137000  12.010000   ; qtot -0.495525
 1104         h1     39    bbb     H1   1104 0.04411300   1.008000   ; qtot -0.451412
 1105         h1     39    bbb     H2   1105 0.04411300   1.008000   ; qtot -0.407299
 1106         c3     39    bbb     C2   1106 0.10137000  12.010000   ; qtot -0.305929
 1107         h1     39    bbb     H3   1107 0.04411300   1.008000   ; qtot -0.261816
 1108         h1     39    bbb     H4   1108 0.04411300   1.008000   ; qtot -0.217703
 1109         c3     39    bbb     C3   1109 -0.00195300  12.010000   ; qtot -0.219656
 1110         h1     39    bbb     H5   1110 0.05064400   1.008000   ; qtot -0.169012
 1111         h1     39    bbb     H6   1111 0.05064400   1.008000   ; qtot -0.118368
 1112         c3     39    bbb     C4   1112 -0.01612100  12.010000   ; qtot -0.134489
 1113         hc     39    bbb     H7   1113 0.04936100   1.008000   ; qtot -0.085128
 1114         hc     39    bbb     H8   1114 0.04936100   1.008000   ; qtot -0.035767
 1115         c3     39    bbb     C5   1115 0.11363000  12.010000   ; qtot 0.077863
 1116         hc     39    bbb     H9   1116 0.06265900   1.008000   ; qtot 0.140522
 1117         hc     39    bbb    H10   1117 0.06265900   1.008000   ; qtot 0.203181
 1118         c3     39    bbb     C6   1118 0.11363000  12.010000   ; qtot 0.316811
 1119         hc     39    bbb    H11   1119 0.06265900   1.008000   ; qtot 0.379470
 1120         hc     39    bbb    H12   1120 0.06265900   1.008000   ; qtot 0.442129
 1121         c3     39    bbb     C7   1121 0.05858200  12.010000   ; qtot 0.500711
 1122         h1     39    bbb    H13   1122 0.06123400   1.008000   ; qtot 0.561945
 1123         h1     39    bbb    H14   1123 0.06123400   1.008000   ; qtot 0.623179
 1124         c3     39    bbb     C8   1124 -0.72423400  12.010000   ; qtot -0.101055
 1125         h1     39    bbb    H15   1125 0.25637600   1.008000   ; qtot 0.155321
 1126         h1     39    bbb    H16   1126 0.25637600   1.008000   ; qtot 0.411697
 1127         c3     39    bbb     C9   1127 -0.72423400  12.010000   ; qtot -0.312537
 1128         h1     39    bbb    H17   1128 0.25637600   1.008000   ; qtot -0.056161
 1129         h1     39    bbb    H18   1129 0.25637600   1.008000   ; qtot 0.200215
 1130         os     39    bbb     O1   1130 -0.20025300  16.000000   ; qtot -0.000038
; residue   40 bbb rtp bbb q -0.0
 1131         n3     40    bbb     N1   1131 -0.59685800  14.010000   ; qtot -0.596896
 1132         c3     40    bbb     C1   1132 0.10137000  12.010000   ; qtot -0.495526
 1133         h1     40    bbb     H1   1133 0.04411300   1.008000   ; qtot -0.451413
 1134         h1     40    bbb     H2   1134 0.04411300   1.008000   ; qtot -0.407300
 1135         c3     40    bbb     C2   1135 0.10137000  12.010000   ; qtot -0.305930
 1136         h1     40    bbb     H3   1136 0.04411300   1.008000   ; qtot -0.261817
 1137         h1     40    bbb     H4   1137 0.04411300   1.008000   ; qtot -0.217704
 1138         c3     40    bbb     C3   1138 -0.00195300  12.010000   ; qtot -0.219657
 1139         h1     40    bbb     H5   1139 0.05064400   1.008000   ; qtot -0.169013
 1140         h1     40    bbb     H6   1140 0.05064400   1.008000   ; qtot -0.118369
 1141         c3     40    bbb     C4   1141 -0.01612100  12.010000   ; qtot -0.134490
 1142         hc     40    bbb     H7   1142 0.04936100   1.008000   ; qtot -0.085129
 1143         hc     40    bbb     H8   1143 0.04936100   1.008000   ; qtot -0.035768
 1144         c3     40    bbb     C5   1144 0.11363000  12.010000   ; qtot 0.077862
 1145         hc     40    bbb     H9   1145 0.06265900   1.008000   ; qtot 0.140521
 1146         hc     40    bbb    H10   1146 0.06265900   1.008000   ; qtot 0.203180
 1147         c3     40    bbb     C6   1147 0.11363000  12.010000   ; qtot 0.316810
 1148         hc     40    bbb    H11   1148 0.06265900   1.008000   ; qtot 0.379469
 1149         hc     40    bbb    H12   1149 0.06265900   1.008000   ; qtot 0.442128
 1150         c3     40    bbb     C7   1150 0.05858200  12.010000   ; qtot 0.500710
 1151         h1     40    bbb    H13   1151 0.06123400   1.008000   ; qtot 0.561944
 1152         h1     40    bbb    H14   1152 0.06123400   1.008000   ; qtot 0.623178
 1153         c3     40    bbb     C8   1153 -0.72423400  12.010000   ; qtot -0.101056
 1154         h1     40    bbb    H15   1154 0.25637600   1.008000   ; qtot 0.155320
 1155         h1     40    bbb    H16   1155 0.25637600   1.008000   ; qtot 0.411696
 1156         c3     40    bbb     C9   1156 -0.72423400  12.010000   ; qtot -0.312538
 1157         h1     40    bbb    H17   1157 0.25637600   1.008000   ; qtot -0.056162
 1158         h1     40    bbb    H18   1158 0.25637600   1.008000   ; qtot 0.200214
 1159         os     40    bbb     O1   1159 -0.20025300  16.000000   ; qtot -0.000039
; residue   41 bbb rtp bbb q -0.0
 1160         n3     41    bbb     N1   1160 -0.59685800  14.010000   ; qtot -0.596897
 1161         c3     41    bbb     C1   1161 0.10137000  12.010000   ; qtot -0.495527
 1162         h1     41    bbb     H1   1162 0.04411300   1.008000   ; qtot -0.451414
 1163         h1     41    bbb     H2   1163 0.04411300   1.008000   ; qtot -0.407301
 1164         c3     41    bbb     C2   1164 0.10137000  12.010000   ; qtot -0.305931
 1165         h1     41    bbb     H3   1165 0.04411300   1.008000   ; qtot -0.261818
 1166         h1     41    bbb     H4   1166 0.04411300   1.008000   ; qtot -0.217705
 1167         c3     41    bbb     C3   1167 -0.00195300  12.010000   ; qtot -0.219658
 1168         h1     41    bbb     H5   1168 0.05064400   1.008000   ; qtot -0.169014
 1169         h1     41    bbb     H6   1169 0.05064400   1.008000   ; qtot -0.118370
 1170         c3     41    bbb     C4   1170 -0.01612100  12.010000   ; qtot -0.134491
 1171         hc     41    bbb     H7   1171 0.04936100   1.008000   ; qtot -0.085130
 1172         hc     41    bbb     H8   1172 0.04936100   1.008000   ; qtot -0.035769
 1173         c3     41    bbb     C5   1173 0.11363000  12.010000   ; qtot 0.077861
 1174         hc     41    bbb     H9   1174 0.06265900   1.008000   ; qtot 0.140520
 1175         hc     41    bbb    H10   1175 0.06265900   1.008000   ; qtot 0.203179
 1176         c3     41    bbb     C6   1176 0.11363000  12.010000   ; qtot 0.316809
 1177         hc     41    bbb    H11   1177 0.06265900   1.008000   ; qtot 0.379468
 1178         hc     41    bbb    H12   1178 0.06265900   1.008000   ; qtot 0.442127
 1179         c3     41    bbb     C7   1179 0.05858200  12.010000   ; qtot 0.500709
 1180         h1     41    bbb    H13   1180 0.06123400   1.008000   ; qtot 0.561943
 1181         h1     41    bbb    H14   1181 0.06123400   1.008000   ; qtot 0.623177
 1182         c3     41    bbb     C8   1182 -0.72423400  12.010000   ; qtot -0.101057
 1183         h1     41    bbb    H15   1183 0.25637600   1.008000   ; qtot 0.155319
 1184         h1     41    bbb    H16   1184 0.25637600   1.008000   ; qtot 0.411695
 1185         c3     41    bbb     C9   1185 -0.72423400  12.010000   ; qtot -0.312539
 1186         h1     41    bbb    H17   1186 0.25637600   1.008000   ; qtot -0.056163
 1187         h1     41    bbb    H18   1187 0.25637600   1.008000   ; qtot 0.200213
 1188         os     41    bbb     O1   1188 -0.20025300  16.000000   ; qtot -0.000040
; residue   42 bbb rtp bbb q -0.0
 1189         n3     42    bbb     N1   1189 -0.59685800  14.010000   ; qtot -0.596898
 1190         c3     42    bbb     C1   1190 0.10137000  12.010000   ; qtot -0.495528
 1191         h1     42    bbb     H1   1191 0.04411300   1.008000   ; qtot -0.451415
 1192         h1     42    bbb     H2   1192 0.04411300   1.008000   ; qtot -0.407302
 1193         c3     42    bbb     C2   1193 0.10137000  12.010000   ; qtot -0.305932
 1194         h1     42    bbb     H3   1194 0.04411300   1.008000   ; qtot -0.261819
 1195         h1     42    bbb     H4   1195 0.04411300   1.008000   ; qtot -0.217706
 1196         c3     42    bbb     C3   1196 -0.00195300  12.010000   ; qtot -0.219659
 1197         h1     42    bbb     H5   1197 0.05064400   1.008000   ; qtot -0.169015
 1198         h1     42    bbb     H6   1198 0.05064400   1.008000   ; qtot -0.118371
 1199         c3     42    bbb     C4   1199 -0.01612100  12.010000   ; qtot -0.134492
 1200         hc     42    bbb     H7   1200 0.04936100   1.008000   ; qtot -0.085131
 1201         hc     42    bbb     H8   1201 0.04936100   1.008000   ; qtot -0.035770
 1202         c3     42    bbb     C5   1202 0.11363000  12.010000   ; qtot 0.077860
 1203         hc     42    bbb     H9   1203 0.06265900   1.008000   ; qtot 0.140519
 1204         hc     42    bbb    H10   1204 0.06265900   1.008000   ; qtot 0.203178
 1205         c3     42    bbb     C6   1205 0.11363000  12.010000   ; qtot 0.316808
 1206         hc     42    bbb    H11   1206 0.06265900   1.008000   ; qtot 0.379467
 1207         hc     42    bbb    H12   1207 0.06265900   1.008000   ; qtot 0.442126
 1208         c3     42    bbb     C7   1208 0.05858200  12.010000   ; qtot 0.500708
 1209         h1     42    bbb    H13   1209 0.06123400   1.008000   ; qtot 0.561942
 1210         h1     42    bbb    H14   1210 0.06123400   1.008000   ; qtot 0.623176
 1211         c3     42    bbb     C8   1211 -0.72423400  12.010000   ; qtot -0.101058
 1212         h1     42    bbb    H15   1212 0.25637600   1.008000   ; qtot 0.155318
 1213         h1     42    bbb    H16   1213 0.25637600   1.008000   ; qtot 0.411694
 1214         c3     42    bbb     C9   1214 -0.72423400  12.010000   ; qtot -0.312540
 1215         h1     42    bbb    H17   1215 0.25637600   1.008000   ; qtot -0.056164
 1216         h1     42    bbb    H18   1216 0.25637600   1.008000   ; qtot 0.200212
 1217         os     42    bbb     O1   1217 -0.20025300  16.000000   ; qtot -0.000041
; residue   43 bbb rtp bbb q -0.0
 1218         n3     43    bbb     N1   1218 -0.59685800  14.010000   ; qtot -0.596899
 1219         c3     43    bbb     C1   1219 0.10137000  12.010000   ; qtot -0.495529
 1220         h1     43    bbb     H1   1220 0.04411300   1.008000   ; qtot -0.451416
 1221         h1     43    bbb     H2   1221 0.04411300   1.008000   ; qtot -0.407303
 1222         c3     43    bbb     C2   1222 0.10137000  12.010000   ; qtot -0.305933
 1223         h1     43    bbb     H3   1223 0.04411300   1.008000   ; qtot -0.261820
 1224         h1     43    bbb     H4   1224 0.04411300   1.008000   ; qtot -0.217707
 1225         c3     43    bbb     C3   1225 -0.00195300  12.010000   ; qtot -0.219660
 1226         h1     43    bbb     H5   1226 0.05064400   1.008000   ; qtot -0.169016
 1227         h1     43    bbb     H6   1227 0.05064400   1.008000   ; qtot -0.118372
 1228         c3     43    bbb     C4   1228 -0.01612100  12.010000   ; qtot -0.134493
 1229         hc     43    bbb     H7   1229 0.04936100   1.008000   ; qtot -0.085132
 1230         hc     43    bbb     H8   1230 0.04936100   1.008000   ; qtot -0.035771
 1231         c3     43    bbb     C5   1231 0.11363000  12.010000   ; qtot 0.077859
 1232         hc     43    bbb     H9   1232 0.06265900   1.008000   ; qtot 0.140518
 1233         hc     43    bbb    H10   1233 0.06265900   1.008000   ; qtot 0.203177
 1234         c3     43    bbb     C6   1234 0.11363000  12.010000   ; qtot 0.316807
 1235         hc     43    bbb    H11   1235 0.06265900   1.008000   ; qtot 0.379466
 1236         hc     43    bbb    H12   1236 0.06265900   1.008000   ; qtot 0.442125
 1237         c3     43    bbb     C7   1237 0.05858200  12.010000   ; qtot 0.500707
 1238         h1     43    bbb    H13   1238 0.06123400   1.008000   ; qtot 0.561941
 1239         h1     43    bbb    H14   1239 0.06123400   1.008000   ; qtot 0.623175
 1240         c3     43    bbb     C8   1240 -0.72423400  12.010000   ; qtot -0.101059
 1241         h1     43    bbb    H15   1241 0.25637600   1.008000   ; qtot 0.155317
 1242         h1     43    bbb    H16   1242 0.25637600   1.008000   ; qtot 0.411693
 1243         c3     43    bbb     C9   1243 -0.72423400  12.010000   ; qtot -0.312541
 1244         h1     43    bbb    H17   1244 0.25637600   1.008000   ; qtot -0.056165
 1245         h1     43    bbb    H18   1245 0.25637600   1.008000   ; qtot 0.200211
 1246         os     43    bbb     O1   1246 -0.20025300  16.000000   ; qtot -0.000042
; residue   44 bbb rtp bbb q -0.0
 1247         n3     44    bbb     N1   1247 -0.59685800  14.010000   ; qtot -0.596900
 1248         c3     44    bbb     C1   1248 0.10137000  12.010000   ; qtot -0.495530
 1249         h1     44    bbb     H1   1249 0.04411300   1.008000   ; qtot -0.451417
 1250         h1     44    bbb     H2   1250 0.04411300   1.008000   ; qtot -0.407304
 1251         c3     44    bbb     C2   1251 0.10137000  12.010000   ; qtot -0.305934
 1252         h1     44    bbb     H3   1252 0.04411300   1.008000   ; qtot -0.261821
 1253         h1     44    bbb     H4   1253 0.04411300   1.008000   ; qtot -0.217708
 1254         c3     44    bbb     C3   1254 -0.00195300  12.010000   ; qtot -0.219661
 1255         h1     44    bbb     H5   1255 0.05064400   1.008000   ; qtot -0.169017
 1256         h1     44    bbb     H6   1256 0.05064400   1.008000   ; qtot -0.118373
 1257         c3     44    bbb     C4   1257 -0.01612100  12.010000   ; qtot -0.134494
 1258         hc     44    bbb     H7   1258 0.04936100   1.008000   ; qtot -0.085133
 1259         hc     44    bbb     H8   1259 0.04936100   1.008000   ; qtot -0.035772
 1260         c3     44    bbb     C5   1260 0.11363000  12.010000   ; qtot 0.077858
 1261         hc     44    bbb     H9   1261 0.06265900   1.008000   ; qtot 0.140517
 1262         hc     44    bbb    H10   1262 0.06265900   1.008000   ; qtot 0.203176
 1263         c3     44    bbb     C6   1263 0.11363000  12.010000   ; qtot 0.316806
 1264         hc     44    bbb    H11   1264 0.06265900   1.008000   ; qtot 0.379465
 1265         hc     44    bbb    H12   1265 0.06265900   1.008000   ; qtot 0.442124
 1266         c3     44    bbb     C7   1266 0.05858200  12.010000   ; qtot 0.500706
 1267         h1     44    bbb    H13   1267 0.06123400   1.008000   ; qtot 0.561940
 1268         h1     44    bbb    H14   1268 0.06123400   1.008000   ; qtot 0.623174
 1269         c3     44    bbb     C8   1269 -0.72423400  12.010000   ; qtot -0.101060
 1270         h1     44    bbb    H15   1270 0.25637600   1.008000   ; qtot 0.155316
 1271         h1     44    bbb    H16   1271 0.25637600   1.008000   ; qtot 0.411692
 1272         c3     44    bbb     C9   1272 -0.72423400  12.010000   ; qtot -0.312542
 1273         h1     44    bbb    H17   1273 0.25637600   1.008000   ; qtot -0.056166
 1274         h1     44    bbb    H18   1274 0.25637600   1.008000   ; qtot 0.200210
 1275         os     44    bbb     O1   1275 -0.20025300  16.000000   ; qtot -0.000043
; residue   45 bbb rtp bbb q -0.0
 1276         n3     45    bbb     N1   1276 -0.59685800  14.010000   ; qtot -0.596901
 1277         c3     45    bbb     C1   1277 0.10137000  12.010000   ; qtot -0.495531
 1278         h1     45    bbb     H1   1278 0.04411300   1.008000   ; qtot -0.451418
 1279         h1     45    bbb     H2   1279 0.04411300   1.008000   ; qtot -0.407305
 1280         c3     45    bbb     C2   1280 0.10137000  12.010000   ; qtot -0.305935
 1281         h1     45    bbb     H3   1281 0.04411300   1.008000   ; qtot -0.261822
 1282         h1     45    bbb     H4   1282 0.04411300   1.008000   ; qtot -0.217709
 1283         c3     45    bbb     C3   1283 -0.00195300  12.010000   ; qtot -0.219662
 1284         h1     45    bbb     H5   1284 0.05064400   1.008000   ; qtot -0.169018
 1285         h1     45    bbb     H6   1285 0.05064400   1.008000   ; qtot -0.118374
 1286         c3     45    bbb     C4   1286 -0.01612100  12.010000   ; qtot -0.134495
 1287         hc     45    bbb     H7   1287 0.04936100   1.008000   ; qtot -0.085134
 1288         hc     45    bbb     H8   1288 0.04936100   1.008000   ; qtot -0.035773
 1289         c3     45    bbb     C5   1289 0.11363000  12.010000   ; qtot 0.077857
 1290         hc     45    bbb     H9   1290 0.06265900   1.008000   ; qtot 0.140516
 1291         hc     45    bbb    H10   1291 0.06265900   1.008000   ; qtot 0.203175
 1292         c3     45    bbb     C6   1292 0.11363000  12.010000   ; qtot 0.316805
 1293         hc     45    bbb    H11   1293 0.06265900   1.008000   ; qtot 0.379464
 1294         hc     45    bbb    H12   1294 0.06265900   1.008000   ; qtot 0.442123
 1295         c3     45    bbb     C7   1295 0.05858200  12.010000   ; qtot 0.500705
 1296         h1     45    bbb    H13   1296 0.06123400   1.008000   ; qtot 0.561939
 1297         h1     45    bbb    H14   1297 0.06123400   1.008000   ; qtot 0.623173
 1298         c3     45    bbb     C8   1298 -0.72423400  12.010000   ; qtot -0.101061
 1299         h1     45    bbb    H15   1299 0.25637600   1.008000   ; qtot 0.155315
 1300         h1     45    bbb    H16   1300 0.25637600   1.008000   ; qtot 0.411691
 1301         c3     45    bbb     C9   1301 -0.72423400  12.010000   ; qtot -0.312543
 1302         h1     45    bbb    H17   1302 0.25637600   1.008000   ; qtot -0.056167
 1303         h1     45    bbb    H18   1303 0.25637600   1.008000   ; qtot 0.200209
 1304         os     45    bbb     O1   1304 -0.20025300  16.000000   ; qtot -0.000044
; residue   46 bbb rtp bbb q -0.0
 1305         n3     46    bbb     N1   1305 -0.59685800  14.010000   ; qtot -0.596902
 1306         c3     46    bbb     C1   1306 0.10137000  12.010000   ; qtot -0.495532
 1307         h1     46    bbb     H1   1307 0.04411300   1.008000   ; qtot -0.451419
 1308         h1     46    bbb     H2   1308 0.04411300   1.008000   ; qtot -0.407306
 1309         c3     46    bbb     C2   1309 0.10137000  12.010000   ; qtot -0.305936
 1310         h1     46    bbb     H3   1310 0.04411300   1.008000   ; qtot -0.261823
 1311         h1     46    bbb     H4   1311 0.04411300   1.008000   ; qtot -0.217710
 1312         c3     46    bbb     C3   1312 -0.00195300  12.010000   ; qtot -0.219663
 1313         h1     46    bbb     H5   1313 0.05064400   1.008000   ; qtot -0.169019
 1314         h1     46    bbb     H6   1314 0.05064400   1.008000   ; qtot -0.118375
 1315         c3     46    bbb     C4   1315 -0.01612100  12.010000   ; qtot -0.134496
 1316         hc     46    bbb     H7   1316 0.04936100   1.008000   ; qtot -0.085135
 1317         hc     46    bbb     H8   1317 0.04936100   1.008000   ; qtot -0.035774
 1318         c3     46    bbb     C5   1318 0.11363000  12.010000   ; qtot 0.077856
 1319         hc     46    bbb     H9   1319 0.06265900   1.008000   ; qtot 0.140515
 1320         hc     46    bbb    H10   1320 0.06265900   1.008000   ; qtot 0.203174
 1321         c3     46    bbb     C6   1321 0.11363000  12.010000   ; qtot 0.316804
 1322         hc     46    bbb    H11   1322 0.06265900   1.008000   ; qtot 0.379463
 1323         hc     46    bbb    H12   1323 0.06265900   1.008000   ; qtot 0.442122
 1324         c3     46    bbb     C7   1324 0.05858200  12.010000   ; qtot 0.500704
 1325         h1     46    bbb    H13   1325 0.06123400   1.008000   ; qtot 0.561938
 1326         h1     46    bbb    H14   1326 0.06123400   1.008000   ; qtot 0.623172
 1327         c3     46    bbb     C8   1327 -0.72423400  12.010000   ; qtot -0.101062
 1328         h1     46    bbb    H15   1328 0.25637600   1.008000   ; qtot 0.155314
 1329         h1     46    bbb    H16   1329 0.25637600   1.008000   ; qtot 0.411690
 1330         c3     46    bbb     C9   1330 -0.72423400  12.010000   ; qtot -0.312544
 1331         h1     46    bbb    H17   1331 0.25637600   1.008000   ; qtot -0.056168
 1332         h1     46    bbb    H18   1332 0.25637600   1.008000   ; qtot 0.200208
 1333         os     46    bbb     O1   1333 -0.20025300  16.000000   ; qtot -0.000045
; residue   47 bbb rtp bbb q -0.0
 1334         n3     47    bbb     N1   1334 -0.59685800  14.010000   ; qtot -0.596903
 1335         c3     47    bbb     C1   1335 0.10137000  12.010000   ; qtot -0.495533
 1336         h1     47    bbb     H1   1336 0.04411300   1.008000   ; qtot -0.451420
 1337         h1     47    bbb     H2   1337 0.04411300   1.008000   ; qtot -0.407307
 1338         c3     47    bbb     C2   1338 0.10137000  12.010000   ; qtot -0.305937
 1339         h1     47    bbb     H3   1339 0.04411300   1.008000   ; qtot -0.261824
 1340         h1     47    bbb     H4   1340 0.04411300   1.008000   ; qtot -0.217711
 1341         c3     47    bbb     C3   1341 -0.00195300  12.010000   ; qtot -0.219664
 1342         h1     47    bbb     H5   1342 0.05064400   1.008000   ; qtot -0.169020
 1343         h1     47    bbb     H6   1343 0.05064400   1.008000   ; qtot -0.118376
 1344         c3     47    bbb     C4   1344 -0.01612100  12.010000   ; qtot -0.134497
 1345         hc     47    bbb     H7   1345 0.04936100   1.008000   ; qtot -0.085136
 1346         hc     47    bbb     H8   1346 0.04936100   1.008000   ; qtot -0.035775
 1347         c3     47    bbb     C5   1347 0.11363000  12.010000   ; qtot 0.077855
 1348         hc     47    bbb     H9   1348 0.06265900   1.008000   ; qtot 0.140514
 1349         hc     47    bbb    H10   1349 0.06265900   1.008000   ; qtot 0.203173
 1350         c3     47    bbb     C6   1350 0.11363000  12.010000   ; qtot 0.316803
 1351         hc     47    bbb    H11   1351 0.06265900   1.008000   ; qtot 0.379462
 1352         hc     47    bbb    H12   1352 0.06265900   1.008000   ; qtot 0.442121
 1353         c3     47    bbb     C7   1353 0.05858200  12.010000   ; qtot 0.500703
 1354         h1     47    bbb    H13   1354 0.06123400   1.008000   ; qtot 0.561937
 1355         h1     47    bbb    H14   1355 0.06123400   1.008000   ; qtot 0.623171
 1356         c3     47    bbb     C8   1356 -0.72423400  12.010000   ; qtot -0.101063
 1357         h1     47    bbb    H15   1357 0.25637600   1.008000   ; qtot 0.155313
 1358         h1     47    bbb    H16   1358 0.25637600   1.008000   ; qtot 0.411689
 1359         c3     47    bbb     C9   1359 -0.72423400  12.010000   ; qtot -0.312545
 1360         h1     47    bbb    H17   1360 0.25637600   1.008000   ; qtot -0.056169
 1361         h1     47    bbb    H18   1361 0.25637600   1.008000   ; qtot 0.200207
 1362         os     47    bbb     O1   1362 -0.20025300  16.000000   ; qtot -0.000046
; residue   48 bbb rtp bbb q -0.0
 1363         n3     48    bbb     N1   1363 -0.59685800  14.010000   ; qtot -0.596904
 1364         c3     48    bbb     C1   1364 0.10137000  12.010000   ; qtot -0.495534
 1365         h1     48    bbb     H1   1365 0.04411300   1.008000   ; qtot -0.451421
 1366         h1     48    bbb     H2   1366 0.04411300   1.008000   ; qtot -0.407308
 1367         c3     48    bbb     C2   1367 0.10137000  12.010000   ; qtot -0.305938
 1368         h1     48    bbb     H3   1368 0.04411300   1.008000   ; qtot -0.261825
 1369         h1     48    bbb     H4   1369 0.04411300   1.008000   ; qtot -0.217712
 1370         c3     48    bbb     C3   1370 -0.00195300  12.010000   ; qtot -0.219665
 1371         h1     48    bbb     H5   1371 0.05064400   1.008000   ; qtot -0.169021
 1372         h1     48    bbb     H6   1372 0.05064400   1.008000   ; qtot -0.118377
 1373         c3     48    bbb     C4   1373 -0.01612100  12.010000   ; qtot -0.134498
 1374         hc     48    bbb     H7   1374 0.04936100   1.008000   ; qtot -0.085137
 1375         hc     48    bbb     H8   1375 0.04936100   1.008000   ; qtot -0.035776
 1376         c3     48    bbb     C5   1376 0.11363000  12.010000   ; qtot 0.077854
 1377         hc     48    bbb     H9   1377 0.06265900   1.008000   ; qtot 0.140513
 1378         hc     48    bbb    H10   1378 0.06265900   1.008000   ; qtot 0.203172
 1379         c3     48    bbb     C6   1379 0.11363000  12.010000   ; qtot 0.316802
 1380         hc     48    bbb    H11   1380 0.06265900   1.008000   ; qtot 0.379461
 1381         hc     48    bbb    H12   1381 0.06265900   1.008000   ; qtot 0.442120
 1382         c3     48    bbb     C7   1382 0.05858200  12.010000   ; qtot 0.500702
 1383         h1     48    bbb    H13   1383 0.06123400   1.008000   ; qtot 0.561936
 1384         h1     48    bbb    H14   1384 0.06123400   1.008000   ; qtot 0.623170
 1385         c3     48    bbb     C8   1385 -0.72423400  12.010000   ; qtot -0.101064
 1386         h1     48    bbb    H15   1386 0.25637600   1.008000   ; qtot 0.155312
 1387         h1     48    bbb    H16   1387 0.25637600   1.008000   ; qtot 0.411688
 1388         c3     48    bbb     C9   1388 -0.72423400  12.010000   ; qtot -0.312546
 1389         h1     48    bbb    H17   1389 0.25637600   1.008000   ; qtot -0.056170
 1390         h1     48    bbb    H18   1390 0.25637600   1.008000   ; qtot 0.200206
 1391         os     48    bbb     O1   1391 -0.20025300  16.000000   ; qtot -0.000047
; residue   49 bbb rtp bbb q -0.0
 1392         n3     49    bbb     N1   1392 -0.59685800  14.010000   ; qtot -0.596905
 1393         c3     49    bbb     C1   1393 0.10137000  12.010000   ; qtot -0.495535
 1394         h1     49    bbb     H1   1394 0.04411300   1.008000   ; qtot -0.451422
 1395         h1     49    bbb     H2   1395 0.04411300   1.008000   ; qtot -0.407309
 1396         c3     49    bbb     C2   1396 0.10137000  12.010000   ; qtot -0.305939
 1397         h1     49    bbb     H3   1397 0.04411300   1.008000   ; qtot -0.261826
 1398         h1     49    bbb     H4   1398 0.04411300   1.008000   ; qtot -0.217713
 1399         c3     49    bbb     C3   1399 -0.00195300  12.010000   ; qtot -0.219666
 1400         h1     49    bbb     H5   1400 0.05064400   1.008000   ; qtot -0.169022
 1401         h1     49    bbb     H6   1401 0.05064400   1.008000   ; qtot -0.118378
 1402         c3     49    bbb     C4   1402 -0.01612100  12.010000   ; qtot -0.134499
 1403         hc     49    bbb     H7   1403 0.04936100   1.008000   ; qtot -0.085138
 1404         hc     49    bbb     H8   1404 0.04936100   1.008000   ; qtot -0.035777
 1405         c3     49    bbb     C5   1405 0.11363000  12.010000   ; qtot 0.077853
 1406         hc     49    bbb     H9   1406 0.06265900   1.008000   ; qtot 0.140512
 1407         hc     49    bbb    H10   1407 0.06265900   1.008000   ; qtot 0.203171
 1408         c3     49    bbb     C6   1408 0.11363000  12.010000   ; qtot 0.316801
 1409         hc     49    bbb    H11   1409 0.06265900   1.008000   ; qtot 0.379460
 1410         hc     49    bbb    H12   1410 0.06265900   1.008000   ; qtot 0.442119
 1411         c3     49    bbb     C7   1411 0.05858200  12.010000   ; qtot 0.500701
 1412         h1     49    bbb    H13   1412 0.06123400   1.008000   ; qtot 0.561935
 1413         h1     49    bbb    H14   1413 0.06123400   1.008000   ; qtot 0.623169
 1414         c3     49    bbb     C8   1414 -0.72423400  12.010000   ; qtot -0.101065
 1415         h1     49    bbb    H15   1415 0.25637600   1.008000   ; qtot 0.155311
 1416         h1     49    bbb    H16   1416 0.25637600   1.008000   ; qtot 0.411687
 1417         c3     49    bbb     C9   1417 -0.72423400  12.010000   ; qtot -0.312547
 1418         h1     49    bbb    H17   1418 0.25637600   1.008000   ; qtot -0.056171
 1419         h1     49    bbb    H18   1419 0.25637600   1.008000   ; qtot 0.200205
 1420         os     49    bbb     O1   1420 -0.20025300  16.000000   ; qtot -0.000048
; residue   50 bbb rtp bbb q -0.0
 1421         n3     50    bbb     N1   1421 -0.59685800  14.010000   ; qtot -0.596906
 1422         c3     50    bbb     C1   1422 0.10137000  12.010000   ; qtot -0.495536
 1423         h1     50    bbb     H1   1423 0.04411300   1.008000   ; qtot -0.451423
 1424         h1     50    bbb     H2   1424 0.04411300   1.008000   ; qtot -0.407310
 1425         c3     50    bbb     C2   1425 0.10137000  12.010000   ; qtot -0.305940
 1426         h1     50    bbb     H3   1426 0.04411300   1.008000   ; qtot -0.261827
 1427         h1     50    bbb     H4   1427 0.04411300   1.008000   ; qtot -0.217714
 1428         c3     50    bbb     C3   1428 -0.00195300  12.010000   ; qtot -0.219667
 1429         h1     50    bbb     H5   1429 0.05064400   1.008000   ; qtot -0.169023
 1430         h1     50    bbb     H6   1430 0.05064400   1.008000   ; qtot -0.118379
 1431         c3     50    bbb     C4   1431 -0.01612100  12.010000   ; qtot -0.134500
 1432         hc     50    bbb     H7   1432 0.04936100   1.008000   ; qtot -0.085139
 1433         hc     50    bbb     H8   1433 0.04936100   1.008000   ; qtot -0.035778
 1434         c3     50    bbb     C5   1434 0.11363000  12.010000   ; qtot 0.077852
 1435         hc     50    bbb     H9   1435 0.06265900   1.008000   ; qtot 0.140511
 1436         hc     50    bbb    H10   1436 0.06265900   1.008000   ; qtot 0.203170
 1437         c3     50    bbb     C6   1437 0.11363000  12.010000   ; qtot 0.316800
 1438         hc     50    bbb    H11   1438 0.06265900   1.008000   ; qtot 0.379459
 1439         hc     50    bbb    H12   1439 0.06265900   1.008000   ; qtot 0.442118
 1440         c3     50    bbb     C7   1440 0.05858200  12.010000   ; qtot 0.500700
 1441         h1     50    bbb    H13   1441 0.06123400   1.008000   ; qtot 0.561934
 1442         h1     50    bbb    H14   1442 0.06123400   1.008000   ; qtot 0.623168
 1443         c3     50    bbb     C8   1443 -0.72423400  12.010000   ; qtot -0.101066
 1444         h1     50    bbb    H15   1444 0.25637600   1.008000   ; qtot 0.155310
 1445         h1     50    bbb    H16   1445 0.25637600   1.008000   ; qtot 0.411686
 1446         c3     50    bbb     C9   1446 -0.72423400  12.010000   ; qtot -0.312548
 1447         h1     50    bbb    H17   1447 0.25637600   1.008000   ; qtot -0.056172
 1448         h1     50    bbb    H18   1448 0.25637600   1.008000   ; qtot 0.200204
 1449         os     50    bbb     O1   1449 -0.20025300  16.000000   ; qtot -0.000049
; residue   51 bbb rtp bbb q -0.0
 1450         n3     51    bbb     N1   1450 -0.59685800  14.010000   ; qtot -0.596907
 1451         c3     51    bbb     C1   1451 0.10137000  12.010000   ; qtot -0.495537
 1452         h1     51    bbb     H1   1452 0.04411300   1.008000   ; qtot -0.451424
 1453         h1     51    bbb     H2   1453 0.04411300   1.008000   ; qtot -0.407311
 1454         c3     51    bbb     C2   1454 0.10137000  12.010000   ; qtot -0.305941
 1455         h1     51    bbb     H3   1455 0.04411300   1.008000   ; qtot -0.261828
 1456         h1     51    bbb     H4   1456 0.04411300   1.008000   ; qtot -0.217715
 1457         c3     51    bbb     C3   1457 -0.00195300  12.010000   ; qtot -0.219668
 1458         h1     51    bbb     H5   1458 0.05064400   1.008000   ; qtot -0.169024
 1459         h1     51    bbb     H6   1459 0.05064400   1.008000   ; qtot -0.118380
 1460         c3     51    bbb     C4   1460 -0.01612100  12.010000   ; qtot -0.134501
 1461         hc     51    bbb     H7   1461 0.04936100   1.008000   ; qtot -0.085140
 1462         hc     51    bbb     H8   1462 0.04936100   1.008000   ; qtot -0.035779
 1463         c3     51    bbb     C5   1463 0.11363000  12.010000   ; qtot 0.077851
 1464         hc     51    bbb     H9   1464 0.06265900   1.008000   ; qtot 0.140510
 1465         hc     51    bbb    H10   1465 0.06265900   1.008000   ; qtot 0.203169
 1466         c3     51    bbb     C6   1466 0.11363000  12.010000   ; qtot 0.316799
 1467         hc     51    bbb    H11   1467 0.06265900   1.008000   ; qtot 0.379458
 1468         hc     51    bbb    H12   1468 0.06265900   1.008000   ; qtot 0.442117
 1469         c3     51    bbb     C7   1469 0.05858200  12.010000   ; qtot 0.500699
 1470         h1     51    bbb    H13   1470 0.06123400   1.008000   ; qtot 0.561933
 1471         h1     51    bbb    H14   1471 0.06123400   1.008000   ; qtot 0.623167
 1472         c3     51    bbb     C8   1472 -0.72423400  12.010000   ; qtot -0.101067
 1473         h1     51    bbb    H15   1473 0.25637600   1.008000   ; qtot 0.155309
 1474         h1     51    bbb    H16   1474 0.25637600   1.008000   ; qtot 0.411685
 1475         c3     51    bbb     C9   1475 -0.72423400  12.010000   ; qtot -0.312549
 1476         h1     51    bbb    H17   1476 0.25637600   1.008000   ; qtot -0.056173
 1477         h1     51    bbb    H18   1477 0.25637600   1.008000   ; qtot 0.200203
 1478         os     51    bbb     O1   1478 -0.20025300  16.000000   ; qtot -0.000050
; residue   52 bbb rtp bbb q -0.0
 1479         n3     52    bbb     N1   1479 -0.59685800  14.010000   ; qtot -0.596908
 1480         c3     52    bbb     C1   1480 0.10137000  12.010000   ; qtot -0.495538
 1481         h1     52    bbb     H1   1481 0.04411300   1.008000   ; qtot -0.451425
 1482         h1     52    bbb     H2   1482 0.04411300   1.008000   ; qtot -0.407312
 1483         c3     52    bbb     C2   1483 0.10137000  12.010000   ; qtot -0.305942
 1484         h1     52    bbb     H3   1484 0.04411300   1.008000   ; qtot -0.261829
 1485         h1     52    bbb     H4   1485 0.04411300   1.008000   ; qtot -0.217716
 1486         c3     52    bbb     C3   1486 -0.00195300  12.010000   ; qtot -0.219669
 1487         h1     52    bbb     H5   1487 0.05064400   1.008000   ; qtot -0.169025
 1488         h1     52    bbb     H6   1488 0.05064400   1.008000   ; qtot -0.118381
 1489         c3     52    bbb     C4   1489 -0.01612100  12.010000   ; qtot -0.134502
 1490         hc     52    bbb     H7   1490 0.04936100   1.008000   ; qtot -0.085141
 1491         hc     52    bbb     H8   1491 0.04936100   1.008000   ; qtot -0.035780
 1492         c3     52    bbb     C5   1492 0.11363000  12.010000   ; qtot 0.077850
 1493         hc     52    bbb     H9   1493 0.06265900   1.008000   ; qtot 0.140509
 1494         hc     52    bbb    H10   1494 0.06265900   1.008000   ; qtot 0.203168
 1495         c3     52    bbb     C6   1495 0.11363000  12.010000   ; qtot 0.316798
 1496         hc     52    bbb    H11   1496 0.06265900   1.008000   ; qtot 0.379457
 1497         hc     52    bbb    H12   1497 0.06265900   1.008000   ; qtot 0.442116
 1498         c3     52    bbb     C7   1498 0.05858200  12.010000   ; qtot 0.500698
 1499         h1     52    bbb    H13   1499 0.06123400   1.008000   ; qtot 0.561932
 1500         h1     52    bbb    H14   1500 0.06123400   1.008000   ; qtot 0.623166
 1501         c3     52    bbb     C8   1501 -0.72423400  12.010000   ; qtot -0.101068
 1502         h1     52    bbb    H15   1502 0.25637600   1.008000   ; qtot 0.155308
 1503         h1     52    bbb    H16   1503 0.25637600   1.008000   ; qtot 0.411684
 1504         c3     52    bbb     C9   1504 -0.72423400  12.010000   ; qtot -0.312550
 1505         h1     52    bbb    H17   1505 0.25637600   1.008000   ; qtot -0.056174
 1506         h1     52    bbb    H18   1506 0.25637600   1.008000   ; qtot 0.200202
 1507         os     52    bbb     O1   1507 -0.20025300  16.000000   ; qtot -0.000051
; residue   53 bbb rtp bbb q -0.0
 1508         n3     53    bbb     N1   1508 -0.59685800  14.010000   ; qtot -0.596909
 1509         c3     53    bbb     C1   1509 0.10137000  12.010000   ; qtot -0.495539
 1510         h1     53    bbb     H1   1510 0.04411300   1.008000   ; qtot -0.451426
 1511         h1     53    bbb     H2   1511 0.04411300   1.008000   ; qtot -0.407313
 1512         c3     53    bbb     C2   1512 0.10137000  12.010000   ; qtot -0.305943
 1513         h1     53    bbb     H3   1513 0.04411300   1.008000   ; qtot -0.261830
 1514         h1     53    bbb     H4   1514 0.04411300   1.008000   ; qtot -0.217717
 1515         c3     53    bbb     C3   1515 -0.00195300  12.010000   ; qtot -0.219670
 1516         h1     53    bbb     H5   1516 0.05064400   1.008000   ; qtot -0.169026
 1517         h1     53    bbb     H6   1517 0.05064400   1.008000   ; qtot -0.118382
 1518         c3     53    bbb     C4   1518 -0.01612100  12.010000   ; qtot -0.134503
 1519         hc     53    bbb     H7   1519 0.04936100   1.008000   ; qtot -0.085142
 1520         hc     53    bbb     H8   1520 0.04936100   1.008000   ; qtot -0.035781
 1521         c3     53    bbb     C5   1521 0.11363000  12.010000   ; qtot 0.077849
 1522         hc     53    bbb     H9   1522 0.06265900   1.008000   ; qtot 0.140508
 1523         hc     53    bbb    H10   1523 0.06265900   1.008000   ; qtot 0.203167
 1524         c3     53    bbb     C6   1524 0.11363000  12.010000   ; qtot 0.316797
 1525         hc     53    bbb    H11   1525 0.06265900   1.008000   ; qtot 0.379456
 1526         hc     53    bbb    H12   1526 0.06265900   1.008000   ; qtot 0.442115
 1527         c3     53    bbb     C7   1527 0.05858200  12.010000   ; qtot 0.500697
 1528         h1     53    bbb    H13   1528 0.06123400   1.008000   ; qtot 0.561931
 1529         h1     53    bbb    H14   1529 0.06123400   1.008000   ; qtot 0.623165
 1530         c3     53    bbb     C8   1530 -0.72423400  12.010000   ; qtot -0.101069
 1531         h1     53    bbb    H15   1531 0.25637600   1.008000   ; qtot 0.155307
 1532         h1     53    bbb    H16   1532 0.25637600   1.008000   ; qtot 0.411683
 1533         c3     53    bbb     C9   1533 -0.72423400  12.010000   ; qtot -0.312551
 1534         h1     53    bbb    H17   1534 0.25637600   1.008000   ; qtot -0.056175
 1535         h1     53    bbb    H18   1535 0.25637600   1.008000   ; qtot 0.200201
 1536         os     53    bbb     O1   1536 -0.20025300  16.000000   ; qtot -0.000052
; residue   54 bbb rtp bbb q -0.0
 1537         n3     54    bbb     N1   1537 -0.59685800  14.010000   ; qtot -0.596910
 1538         c3     54    bbb     C1   1538 0.10137000  12.010000   ; qtot -0.495540
 1539         h1     54    bbb     H1   1539 0.04411300   1.008000   ; qtot -0.451427
 1540         h1     54    bbb     H2   1540 0.04411300   1.008000   ; qtot -0.407314
 1541         c3     54    bbb     C2   1541 0.10137000  12.010000   ; qtot -0.305944
 1542         h1     54    bbb     H3   1542 0.04411300   1.008000   ; qtot -0.261831
 1543         h1     54    bbb     H4   1543 0.04411300   1.008000   ; qtot -0.217718
 1544         c3     54    bbb     C3   1544 -0.00195300  12.010000   ; qtot -0.219671
 1545         h1     54    bbb     H5   1545 0.05064400   1.008000   ; qtot -0.169027
 1546         h1     54    bbb     H6   1546 0.05064400   1.008000   ; qtot -0.118383
 1547         c3     54    bbb     C4   1547 -0.01612100  12.010000   ; qtot -0.134504
 1548         hc     54    bbb     H7   1548 0.04936100   1.008000   ; qtot -0.085143
 1549         hc     54    bbb     H8   1549 0.04936100   1.008000   ; qtot -0.035782
 1550         c3     54    bbb     C5   1550 0.11363000  12.010000   ; qtot 0.077848
 1551         hc     54    bbb     H9   1551 0.06265900   1.008000   ; qtot 0.140507
 1552         hc     54    bbb    H10   1552 0.06265900   1.008000   ; qtot 0.203166
 1553         c3     54    bbb     C6   1553 0.11363000  12.010000   ; qtot 0.316796
 1554         hc     54    bbb    H11   1554 0.06265900   1.008000   ; qtot 0.379455
 1555         hc     54    bbb    H12   1555 0.06265900   1.008000   ; qtot 0.442114
 1556         c3     54    bbb     C7   1556 0.05858200  12.010000   ; qtot 0.500696
 1557         h1     54    bbb    H13   1557 0.06123400   1.008000   ; qtot 0.561930
 1558         h1     54    bbb    H14   1558 0.06123400   1.008000   ; qtot 0.623164
 1559         c3     54    bbb     C8   1559 -0.72423400  12.010000   ; qtot -0.101070
 1560         h1     54    bbb    H15   1560 0.25637600   1.008000   ; qtot 0.155306
 1561         h1     54    bbb    H16   1561 0.25637600   1.008000   ; qtot 0.411682
 1562         c3     54    bbb     C9   1562 -0.72423400  12.010000   ; qtot -0.312552
 1563         h1     54    bbb    H17   1563 0.25637600   1.008000   ; qtot -0.056176
 1564         h1     54    bbb    H18   1564 0.25637600   1.008000   ; qtot 0.200200
 1565         os     54    bbb     O1   1565 -0.20025300  16.000000   ; qtot -0.000053
; residue   55 bbb rtp bbb q -0.0
 1566         n3     55    bbb     N1   1566 -0.59685800  14.010000   ; qtot -0.596911
 1567         c3     55    bbb     C1   1567 0.10137000  12.010000   ; qtot -0.495541
 1568         h1     55    bbb     H1   1568 0.04411300   1.008000   ; qtot -0.451428
 1569         h1     55    bbb     H2   1569 0.04411300   1.008000   ; qtot -0.407315
 1570         c3     55    bbb     C2   1570 0.10137000  12.010000   ; qtot -0.305945
 1571         h1     55    bbb     H3   1571 0.04411300   1.008000   ; qtot -0.261832
 1572         h1     55    bbb     H4   1572 0.04411300   1.008000   ; qtot -0.217719
 1573         c3     55    bbb     C3   1573 -0.00195300  12.010000   ; qtot -0.219672
 1574         h1     55    bbb     H5   1574 0.05064400   1.008000   ; qtot -0.169028
 1575         h1     55    bbb     H6   1575 0.05064400   1.008000   ; qtot -0.118384
 1576         c3     55    bbb     C4   1576 -0.01612100  12.010000   ; qtot -0.134505
 1577         hc     55    bbb     H7   1577 0.04936100   1.008000   ; qtot -0.085144
 1578         hc     55    bbb     H8   1578 0.04936100   1.008000   ; qtot -0.035783
 1579         c3     55    bbb     C5   1579 0.11363000  12.010000   ; qtot 0.077847
 1580         hc     55    bbb     H9   1580 0.06265900   1.008000   ; qtot 0.140506
 1581         hc     55    bbb    H10   1581 0.06265900   1.008000   ; qtot 0.203165
 1582         c3     55    bbb     C6   1582 0.11363000  12.010000   ; qtot 0.316795
 1583         hc     55    bbb    H11   1583 0.06265900   1.008000   ; qtot 0.379454
 1584         hc     55    bbb    H12   1584 0.06265900   1.008000   ; qtot 0.442113
 1585         c3     55    bbb     C7   1585 0.05858200  12.010000   ; qtot 0.500695
 1586         h1     55    bbb    H13   1586 0.06123400   1.008000   ; qtot 0.561929
 1587         h1     55    bbb    H14   1587 0.06123400   1.008000   ; qtot 0.623163
 1588         c3     55    bbb     C8   1588 -0.72423400  12.010000   ; qtot -0.101071
 1589         h1     55    bbb    H15   1589 0.25637600   1.008000   ; qtot 0.155305
 1590         h1     55    bbb    H16   1590 0.25637600   1.008000   ; qtot 0.411681
 1591         c3     55    bbb     C9   1591 -0.72423400  12.010000   ; qtot -0.312553
 1592         h1     55    bbb    H17   1592 0.25637600   1.008000   ; qtot -0.056177
 1593         h1     55    bbb    H18   1593 0.25637600   1.008000   ; qtot 0.200199
 1594         os     55    bbb     O1   1594 -0.20025300  16.000000   ; qtot -0.000054
; residue   56 bbb rtp bbb q -0.0
 1595         n3     56    bbb     N1   1595 -0.59685800  14.010000   ; qtot -0.596912
 1596         c3     56    bbb     C1   1596 0.10137000  12.010000   ; qtot -0.495542
 1597         h1     56    bbb     H1   1597 0.04411300   1.008000   ; qtot -0.451429
 1598         h1     56    bbb     H2   1598 0.04411300   1.008000   ; qtot -0.407316
 1599         c3     56    bbb     C2   1599 0.10137000  12.010000   ; qtot -0.305946
 1600         h1     56    bbb     H3   1600 0.04411300   1.008000   ; qtot -0.261833
 1601         h1     56    bbb     H4   1601 0.04411300   1.008000   ; qtot -0.217720
 1602         c3     56    bbb     C3   1602 -0.00195300  12.010000   ; qtot -0.219673
 1603         h1     56    bbb     H5   1603 0.05064400   1.008000   ; qtot -0.169029
 1604         h1     56    bbb     H6   1604 0.05064400   1.008000   ; qtot -0.118385
 1605         c3     56    bbb     C4   1605 -0.01612100  12.010000   ; qtot -0.134506
 1606         hc     56    bbb     H7   1606 0.04936100   1.008000   ; qtot -0.085145
 1607         hc     56    bbb     H8   1607 0.04936100   1.008000   ; qtot -0.035784
 1608         c3     56    bbb     C5   1608 0.11363000  12.010000   ; qtot 0.077846
 1609         hc     56    bbb     H9   1609 0.06265900   1.008000   ; qtot 0.140505
 1610         hc     56    bbb    H10   1610 0.06265900   1.008000   ; qtot 0.203164
 1611         c3     56    bbb     C6   1611 0.11363000  12.010000   ; qtot 0.316794
 1612         hc     56    bbb    H11   1612 0.06265900   1.008000   ; qtot 0.379453
 1613         hc     56    bbb    H12   1613 0.06265900   1.008000   ; qtot 0.442112
 1614         c3     56    bbb     C7   1614 0.05858200  12.010000   ; qtot 0.500694
 1615         h1     56    bbb    H13   1615 0.06123400   1.008000   ; qtot 0.561928
 1616         h1     56    bbb    H14   1616 0.06123400   1.008000   ; qtot 0.623162
 1617         c3     56    bbb     C8   1617 -0.72423400  12.010000   ; qtot -0.101072
 1618         h1     56    bbb    H15   1618 0.25637600   1.008000   ; qtot 0.155304
 1619         h1     56    bbb    H16   1619 0.25637600   1.008000   ; qtot 0.411680
 1620         c3     56    bbb     C9   1620 -0.72423400  12.010000   ; qtot -0.312554
 1621         h1     56    bbb    H17   1621 0.25637600   1.008000   ; qtot -0.056178
 1622         h1     56    bbb    H18   1622 0.25637600   1.008000   ; qtot 0.200198
 1623         os     56    bbb     O1   1623 -0.20025300  16.000000   ; qtot -0.000055
; residue   57 bbb rtp bbb q -0.0
 1624         n3     57    bbb     N1   1624 -0.59685800  14.010000   ; qtot -0.596913
 1625         c3     57    bbb     C1   1625 0.10137000  12.010000   ; qtot -0.495543
 1626         h1     57    bbb     H1   1626 0.04411300   1.008000   ; qtot -0.451430
 1627         h1     57    bbb     H2   1627 0.04411300   1.008000   ; qtot -0.407317
 1628         c3     57    bbb     C2   1628 0.10137000  12.010000   ; qtot -0.305947
 1629         h1     57    bbb     H3   1629 0.04411300   1.008000   ; qtot -0.261834
 1630         h1     57    bbb     H4   1630 0.04411300   1.008000   ; qtot -0.217721
 1631         c3     57    bbb     C3   1631 -0.00195300  12.010000   ; qtot -0.219674
 1632         h1     57    bbb     H5   1632 0.05064400   1.008000   ; qtot -0.169030
 1633         h1     57    bbb     H6   1633 0.05064400   1.008000   ; qtot -0.118386
 1634         c3     57    bbb     C4   1634 -0.01612100  12.010000   ; qtot -0.134507
 1635         hc     57    bbb     H7   1635 0.04936100   1.008000   ; qtot -0.085146
 1636         hc     57    bbb     H8   1636 0.04936100   1.008000   ; qtot -0.035785
 1637         c3     57    bbb     C5   1637 0.11363000  12.010000   ; qtot 0.077845
 1638         hc     57    bbb     H9   1638 0.06265900   1.008000   ; qtot 0.140504
 1639         hc     57    bbb    H10   1639 0.06265900   1.008000   ; qtot 0.203163
 1640         c3     57    bbb     C6   1640 0.11363000  12.010000   ; qtot 0.316793
 1641         hc     57    bbb    H11   1641 0.06265900   1.008000   ; qtot 0.379452
 1642         hc     57    bbb    H12   1642 0.06265900   1.008000   ; qtot 0.442111
 1643         c3     57    bbb     C7   1643 0.05858200  12.010000   ; qtot 0.500693
 1644         h1     57    bbb    H13   1644 0.06123400   1.008000   ; qtot 0.561927
 1645         h1     57    bbb    H14   1645 0.06123400   1.008000   ; qtot 0.623161
 1646         c3     57    bbb     C8   1646 -0.72423400  12.010000   ; qtot -0.101073
 1647         h1     57    bbb    H15   1647 0.25637600   1.008000   ; qtot 0.155303
 1648         h1     57    bbb    H16   1648 0.25637600   1.008000   ; qtot 0.411679
 1649         c3     57    bbb     C9   1649 -0.72423400  12.010000   ; qtot -0.312555
 1650         h1     57    bbb    H17   1650 0.25637600   1.008000   ; qtot -0.056179
 1651         h1     57    bbb    H18   1651 0.25637600   1.008000   ; qtot 0.200197
 1652         os     57    bbb     O1   1652 -0.20025300  16.000000   ; qtot -0.000056
; residue   58 bbb rtp bbb q -0.0
 1653         n3     58    bbb     N1   1653 -0.59685800  14.010000   ; qtot -0.596914
 1654         c3     58    bbb     C1   1654 0.10137000  12.010000   ; qtot -0.495544
 1655         h1     58    bbb     H1   1655 0.04411300   1.008000   ; qtot -0.451431
 1656         h1     58    bbb     H2   1656 0.04411300   1.008000   ; qtot -0.407318
 1657         c3     58    bbb     C2   1657 0.10137000  12.010000   ; qtot -0.305948
 1658         h1     58    bbb     H3   1658 0.04411300   1.008000   ; qtot -0.261835
 1659         h1     58    bbb     H4   1659 0.04411300   1.008000   ; qtot -0.217722
 1660         c3     58    bbb     C3   1660 -0.00195300  12.010000   ; qtot -0.219675
 1661         h1     58    bbb     H5   1661 0.05064400   1.008000   ; qtot -0.169031
 1662         h1     58    bbb     H6   1662 0.05064400   1.008000   ; qtot -0.118387
 1663         c3     58    bbb     C4   1663 -0.01612100  12.010000   ; qtot -0.134508
 1664         hc     58    bbb     H7   1664 0.04936100   1.008000   ; qtot -0.085147
 1665         hc     58    bbb     H8   1665 0.04936100   1.008000   ; qtot -0.035786
 1666         c3     58    bbb     C5   1666 0.11363000  12.010000   ; qtot 0.077844
 1667         hc     58    bbb     H9   1667 0.06265900   1.008000   ; qtot 0.140503
 1668         hc     58    bbb    H10   1668 0.06265900   1.008000   ; qtot 0.203162
 1669         c3     58    bbb     C6   1669 0.11363000  12.010000   ; qtot 0.316792
 1670         hc     58    bbb    H11   1670 0.06265900   1.008000   ; qtot 0.379451
 1671         hc     58    bbb    H12   1671 0.06265900   1.008000   ; qtot 0.442110
 1672         c3     58    bbb     C7   1672 0.05858200  12.010000   ; qtot 0.500692
 1673         h1     58    bbb    H13   1673 0.06123400   1.008000   ; qtot 0.561926
 1674         h1     58    bbb    H14   1674 0.06123400   1.008000   ; qtot 0.623160
 1675         c3     58    bbb     C8   1675 -0.72423400  12.010000   ; qtot -0.101074
 1676         h1     58    bbb    H15   1676 0.25637600   1.008000   ; qtot 0.155302
 1677         h1     58    bbb    H16   1677 0.25637600   1.008000   ; qtot 0.411678
 1678         c3     58    bbb     C9   1678 -0.72423400  12.010000   ; qtot -0.312556
 1679         h1     58    bbb    H17   1679 0.25637600   1.008000   ; qtot -0.056180
 1680         h1     58    bbb    H18   1680 0.25637600   1.008000   ; qtot 0.200196
 1681         os     58    bbb     O1   1681 -0.20025300  16.000000   ; qtot -0.000057
; residue   59 bbb rtp bbb q -0.0
 1682         n3     59    bbb     N1   1682 -0.59685800  14.010000   ; qtot -0.596915
 1683         c3     59    bbb     C1   1683 0.10137000  12.010000   ; qtot -0.495545
 1684         h1     59    bbb     H1   1684 0.04411300   1.008000   ; qtot -0.451432
 1685         h1     59    bbb     H2   1685 0.04411300   1.008000   ; qtot -0.407319
 1686         c3     59    bbb     C2   1686 0.10137000  12.010000   ; qtot -0.305949
 1687         h1     59    bbb     H3   1687 0.04411300   1.008000   ; qtot -0.261836
 1688         h1     59    bbb     H4   1688 0.04411300   1.008000   ; qtot -0.217723
 1689         c3     59    bbb     C3   1689 -0.00195300  12.010000   ; qtot -0.219676
 1690         h1     59    bbb     H5   1690 0.05064400   1.008000   ; qtot -0.169032
 1691         h1     59    bbb     H6   1691 0.05064400   1.008000   ; qtot -0.118388
 1692         c3     59    bbb     C4   1692 -0.01612100  12.010000   ; qtot -0.134509
 1693         hc     59    bbb     H7   1693 0.04936100   1.008000   ; qtot -0.085148
 1694         hc     59    bbb     H8   1694 0.04936100   1.008000   ; qtot -0.035787
 1695         c3     59    bbb     C5   1695 0.11363000  12.010000   ; qtot 0.077843
 1696         hc     59    bbb     H9   1696 0.06265900   1.008000   ; qtot 0.140502
 1697         hc     59    bbb    H10   1697 0.06265900   1.008000   ; qtot 0.203161
 1698         c3     59    bbb     C6   1698 0.11363000  12.010000   ; qtot 0.316791
 1699         hc     59    bbb    H11   1699 0.06265900   1.008000   ; qtot 0.379450
 1700         hc     59    bbb    H12   1700 0.06265900   1.008000   ; qtot 0.442109
 1701         c3     59    bbb     C7   1701 0.05858200  12.010000   ; qtot 0.500691
 1702         h1     59    bbb    H13   1702 0.06123400   1.008000   ; qtot 0.561925
 1703         h1     59    bbb    H14   1703 0.06123400   1.008000   ; qtot 0.623159
 1704         c3     59    bbb     C8   1704 -0.72423400  12.010000   ; qtot -0.101075
 1705         h1     59    bbb    H15   1705 0.25637600   1.008000   ; qtot 0.155301
 1706         h1     59    bbb    H16   1706 0.25637600   1.008000   ; qtot 0.411677
 1707         c3     59    bbb     C9   1707 -0.72423400  12.010000   ; qtot -0.312557
 1708         h1     59    bbb    H17   1708 0.25637600   1.008000   ; qtot -0.056181
 1709         h1     59    bbb    H18   1709 0.25637600   1.008000   ; qtot 0.200195
 1710         os     59    bbb     O1   1710 -0.20025300  16.000000   ; qtot -0.000058
; residue   60 bbb rtp bbb q -0.0
 1711         n3     60    bbb     N1   1711 -0.59685800  14.010000   ; qtot -0.596916
 1712         c3     60    bbb     C1   1712 0.10137000  12.010000   ; qtot -0.495546
 1713         h1     60    bbb     H1   1713 0.04411300   1.008000   ; qtot -0.451433
 1714         h1     60    bbb     H2   1714 0.04411300   1.008000   ; qtot -0.407320
 1715         c3     60    bbb     C2   1715 0.10137000  12.010000   ; qtot -0.305950
 1716         h1     60    bbb     H3   1716 0.04411300   1.008000   ; qtot -0.261837
 1717         h1     60    bbb     H4   1717 0.04411300   1.008000   ; qtot -0.217724
 1718         c3     60    bbb     C3   1718 -0.00195300  12.010000   ; qtot -0.219677
 1719         h1     60    bbb     H5   1719 0.05064400   1.008000   ; qtot -0.169033
 1720         h1     60    bbb     H6   1720 0.05064400   1.008000   ; qtot -0.118389
 1721         c3     60    bbb     C4   1721 -0.01612100  12.010000   ; qtot -0.134510
 1722         hc     60    bbb     H7   1722 0.04936100   1.008000   ; qtot -0.085149
 1723         hc     60    bbb     H8   1723 0.04936100   1.008000   ; qtot -0.035788
 1724         c3     60    bbb     C5   1724 0.11363000  12.010000   ; qtot 0.077842
 1725         hc     60    bbb     H9   1725 0.06265900   1.008000   ; qtot 0.140501
 1726         hc     60    bbb    H10   1726 0.06265900   1.008000   ; qtot 0.203160
 1727         c3     60    bbb     C6   1727 0.11363000  12.010000   ; qtot 0.316790
 1728         hc     60    bbb    H11   1728 0.06265900   1.008000   ; qtot 0.379449
 1729         hc     60    bbb    H12   1729 0.06265900   1.008000   ; qtot 0.442108
 1730         c3     60    bbb     C7   1730 0.05858200  12.010000   ; qtot 0.500690
 1731         h1     60    bbb    H13   1731 0.06123400   1.008000   ; qtot 0.561924
 1732         h1     60    bbb    H14   1732 0.06123400   1.008000   ; qtot 0.623158
 1733         c3     60    bbb     C8   1733 -0.72423400  12.010000   ; qtot -0.101076
 1734         h1     60    bbb    H15   1734 0.25637600   1.008000   ; qtot 0.155300
 1735         h1     60    bbb    H16   1735 0.25637600   1.008000   ; qtot 0.411676
 1736         c3     60    bbb     C9   1736 -0.72423400  12.010000   ; qtot -0.312558
 1737         h1     60    bbb    H17   1737 0.25637600   1.008000   ; qtot -0.056182
 1738         h1     60    bbb    H18   1738 0.25637600   1.008000   ; qtot 0.200194
 1739         os     60    bbb     O1   1739 -0.20025300  16.000000   ; qtot -0.000059
; residue   61 bbb rtp bbb q -0.0
 1740         n3     61    bbb     N1   1740 -0.59685800  14.010000   ; qtot -0.596917
 1741         c3     61    bbb     C1   1741 0.10137000  12.010000   ; qtot -0.495547
 1742         h1     61    bbb     H1   1742 0.04411300   1.008000   ; qtot -0.451434
 1743         h1     61    bbb     H2   1743 0.04411300   1.008000   ; qtot -0.407321
 1744         c3     61    bbb     C2   1744 0.10137000  12.010000   ; qtot -0.305951
 1745         h1     61    bbb     H3   1745 0.04411300   1.008000   ; qtot -0.261838
 1746         h1     61    bbb     H4   1746 0.04411300   1.008000   ; qtot -0.217725
 1747         c3     61    bbb     C3   1747 -0.00195300  12.010000   ; qtot -0.219678
 1748         h1     61    bbb     H5   1748 0.05064400   1.008000   ; qtot -0.169034
 1749         h1     61    bbb     H6   1749 0.05064400   1.008000   ; qtot -0.118390
 1750         c3     61    bbb     C4   1750 -0.01612100  12.010000   ; qtot -0.134511
 1751         hc     61    bbb     H7   1751 0.04936100   1.008000   ; qtot -0.085150
 1752         hc     61    bbb     H8   1752 0.04936100   1.008000   ; qtot -0.035789
 1753         c3     61    bbb     C5   1753 0.11363000  12.010000   ; qtot 0.077841
 1754         hc     61    bbb     H9   1754 0.06265900   1.008000   ; qtot 0.140500
 1755         hc     61    bbb    H10   1755 0.06265900   1.008000   ; qtot 0.203159
 1756         c3     61    bbb     C6   1756 0.11363000  12.010000   ; qtot 0.316789
 1757         hc     61    bbb    H11   1757 0.06265900   1.008000   ; qtot 0.379448
 1758         hc     61    bbb    H12   1758 0.06265900   1.008000   ; qtot 0.442107
 1759         c3     61    bbb     C7   1759 0.05858200  12.010000   ; qtot 0.500689
 1760         h1     61    bbb    H13   1760 0.06123400   1.008000   ; qtot 0.561923
 1761         h1     61    bbb    H14   1761 0.06123400   1.008000   ; qtot 0.623157
 1762         c3     61    bbb     C8   1762 -0.72423400  12.010000   ; qtot -0.101077
 1763         h1     61    bbb    H15   1763 0.25637600   1.008000   ; qtot 0.155299
 1764         h1     61    bbb    H16   1764 0.25637600   1.008000   ; qtot 0.411675
 1765         c3     61    bbb     C9   1765 -0.72423400  12.010000   ; qtot -0.312559
 1766         h1     61    bbb    H17   1766 0.25637600   1.008000   ; qtot -0.056183
 1767         h1     61    bbb    H18   1767 0.25637600   1.008000   ; qtot 0.200193
 1768         os     61    bbb     O1   1768 -0.20025300  16.000000   ; qtot -0.000060
; residue   62 bbb rtp bbb q -0.0
 1769         n3     62    bbb     N1   1769 -0.59685800  14.010000   ; qtot -0.596918
 1770         c3     62    bbb     C1   1770 0.10137000  12.010000   ; qtot -0.495548
 1771         h1     62    bbb     H1   1771 0.04411300   1.008000   ; qtot -0.451435
 1772         h1     62    bbb     H2   1772 0.04411300   1.008000   ; qtot -0.407322
 1773         c3     62    bbb     C2   1773 0.10137000  12.010000   ; qtot -0.305952
 1774         h1     62    bbb     H3   1774 0.04411300   1.008000   ; qtot -0.261839
 1775         h1     62    bbb     H4   1775 0.04411300   1.008000   ; qtot -0.217726
 1776         c3     62    bbb     C3   1776 -0.00195300  12.010000   ; qtot -0.219679
 1777         h1     62    bbb     H5   1777 0.05064400   1.008000   ; qtot -0.169035
 1778         h1     62    bbb     H6   1778 0.05064400   1.008000   ; qtot -0.118391
 1779         c3     62    bbb     C4   1779 -0.01612100  12.010000   ; qtot -0.134512
 1780         hc     62    bbb     H7   1780 0.04936100   1.008000   ; qtot -0.085151
 1781         hc     62    bbb     H8   1781 0.04936100   1.008000   ; qtot -0.035790
 1782         c3     62    bbb     C5   1782 0.11363000  12.010000   ; qtot 0.077840
 1783         hc     62    bbb     H9   1783 0.06265900   1.008000   ; qtot 0.140499
 1784         hc     62    bbb    H10   1784 0.06265900   1.008000   ; qtot 0.203158
 1785         c3     62    bbb     C6   1785 0.11363000  12.010000   ; qtot 0.316788
 1786         hc     62    bbb    H11   1786 0.06265900   1.008000   ; qtot 0.379447
 1787         hc     62    bbb    H12   1787 0.06265900   1.008000   ; qtot 0.442106
 1788         c3     62    bbb     C7   1788 0.05858200  12.010000   ; qtot 0.500688
 1789         h1     62    bbb    H13   1789 0.06123400   1.008000   ; qtot 0.561922
 1790         h1     62    bbb    H14   1790 0.06123400   1.008000   ; qtot 0.623156
 1791         c3     62    bbb     C8   1791 -0.72423400  12.010000   ; qtot -0.101078
 1792         h1     62    bbb    H15   1792 0.25637600   1.008000   ; qtot 0.155298
 1793         h1     62    bbb    H16   1793 0.25637600   1.008000   ; qtot 0.411674
 1794         c3     62    bbb     C9   1794 -0.72423400  12.010000   ; qtot -0.312560
 1795         h1     62    bbb    H17   1795 0.25637600   1.008000   ; qtot -0.056184
 1796         h1     62    bbb    H18   1796 0.25637600   1.008000   ; qtot 0.200192
 1797         os     62    bbb     O1   1797 -0.20025300  16.000000   ; qtot -0.000061
; residue   63 bbb rtp bbb q -0.0
 1798         n3     63    bbb     N1   1798 -0.59685800  14.010000   ; qtot -0.596919
 1799         c3     63    bbb     C1   1799 0.10137000  12.010000   ; qtot -0.495549
 1800         h1     63    bbb     H1   1800 0.04411300   1.008000   ; qtot -0.451436
 1801         h1     63    bbb     H2   1801 0.04411300   1.008000   ; qtot -0.407323
 1802         c3     63    bbb     C2   1802 0.10137000  12.010000   ; qtot -0.305953
 1803         h1     63    bbb     H3   1803 0.04411300   1.008000   ; qtot -0.261840
 1804         h1     63    bbb     H4   1804 0.04411300   1.008000   ; qtot -0.217727
 1805         c3     63    bbb     C3   1805 -0.00195300  12.010000   ; qtot -0.219680
 1806         h1     63    bbb     H5   1806 0.05064400   1.008000   ; qtot -0.169036
 1807         h1     63    bbb     H6   1807 0.05064400   1.008000   ; qtot -0.118392
 1808         c3     63    bbb     C4   1808 -0.01612100  12.010000   ; qtot -0.134513
 1809         hc     63    bbb     H7   1809 0.04936100   1.008000   ; qtot -0.085152
 1810         hc     63    bbb     H8   1810 0.04936100   1.008000   ; qtot -0.035791
 1811         c3     63    bbb     C5   1811 0.11363000  12.010000   ; qtot 0.077839
 1812         hc     63    bbb     H9   1812 0.06265900   1.008000   ; qtot 0.140498
 1813         hc     63    bbb    H10   1813 0.06265900   1.008000   ; qtot 0.203157
 1814         c3     63    bbb     C6   1814 0.11363000  12.010000   ; qtot 0.316787
 1815         hc     63    bbb    H11   1815 0.06265900   1.008000   ; qtot 0.379446
 1816         hc     63    bbb    H12   1816 0.06265900   1.008000   ; qtot 0.442105
 1817         c3     63    bbb     C7   1817 0.05858200  12.010000   ; qtot 0.500687
 1818         h1     63    bbb    H13   1818 0.06123400   1.008000   ; qtot 0.561921
 1819         h1     63    bbb    H14   1819 0.06123400   1.008000   ; qtot 0.623155
 1820         c3     63    bbb     C8   1820 -0.72423400  12.010000   ; qtot -0.101079
 1821         h1     63    bbb    H15   1821 0.25637600   1.008000   ; qtot 0.155297
 1822         h1     63    bbb    H16   1822 0.25637600   1.008000   ; qtot 0.411673
 1823         c3     63    bbb     C9   1823 -0.72423400  12.010000   ; qtot -0.312561
 1824         h1     63    bbb    H17   1824 0.25637600   1.008000   ; qtot -0.056185
 1825         h1     63    bbb    H18   1825 0.25637600   1.008000   ; qtot 0.200191
 1826         os     63    bbb     O1   1826 -0.20025300  16.000000   ; qtot -0.000062
; residue   64 bbb rtp bbb q -0.0
 1827         n3     64    bbb     N1   1827 -0.59685800  14.010000   ; qtot -0.596920
 1828         c3     64    bbb     C1   1828 0.10137000  12.010000   ; qtot -0.495550
 1829         h1     64    bbb     H1   1829 0.04411300   1.008000   ; qtot -0.451437
 1830         h1     64    bbb     H2   1830 0.04411300   1.008000   ; qtot -0.407324
 1831         c3     64    bbb     C2   1831 0.10137000  12.010000   ; qtot -0.305954
 1832         h1     64    bbb     H3   1832 0.04411300   1.008000   ; qtot -0.261841
 1833         h1     64    bbb     H4   1833 0.04411300   1.008000   ; qtot -0.217728
 1834         c3     64    bbb     C3   1834 -0.00195300  12.010000   ; qtot -0.219681
 1835         h1     64    bbb     H5   1835 0.05064400   1.008000   ; qtot -0.169037
 1836         h1     64    bbb     H6   1836 0.05064400   1.008000   ; qtot -0.118393
 1837         c3     64    bbb     C4   1837 -0.01612100  12.010000   ; qtot -0.134514
 1838         hc     64    bbb     H7   1838 0.04936100   1.008000   ; qtot -0.085153
 1839         hc     64    bbb     H8   1839 0.04936100   1.008000   ; qtot -0.035792
 1840         c3     64    bbb     C5   1840 0.11363000  12.010000   ; qtot 0.077838
 1841         hc     64    bbb     H9   1841 0.06265900   1.008000   ; qtot 0.140497
 1842         hc     64    bbb    H10   1842 0.06265900   1.008000   ; qtot 0.203156
 1843         c3     64    bbb     C6   1843 0.11363000  12.010000   ; qtot 0.316786
 1844         hc     64    bbb    H11   1844 0.06265900   1.008000   ; qtot 0.379445
 1845         hc     64    bbb    H12   1845 0.06265900   1.008000   ; qtot 0.442104
 1846         c3     64    bbb     C7   1846 0.05858200  12.010000   ; qtot 0.500686
 1847         h1     64    bbb    H13   1847 0.06123400   1.008000   ; qtot 0.561920
 1848         h1     64    bbb    H14   1848 0.06123400   1.008000   ; qtot 0.623154
 1849         c3     64    bbb     C8   1849 -0.72423400  12.010000   ; qtot -0.101080
 1850         h1     64    bbb    H15   1850 0.25637600   1.008000   ; qtot 0.155296
 1851         h1     64    bbb    H16   1851 0.25637600   1.008000   ; qtot 0.411672
 1852         c3     64    bbb     C9   1852 -0.72423400  12.010000   ; qtot -0.312562
 1853         h1     64    bbb    H17   1853 0.25637600   1.008000   ; qtot -0.056186
 1854         h1     64    bbb    H18   1854 0.25637600   1.008000   ; qtot 0.200190
 1855         os     64    bbb     O1   1855 -0.20025300  16.000000   ; qtot -0.000063
; residue   65 bbb rtp bbb q -0.0
 1856         n3     65    bbb     N1   1856 -0.59685800  14.010000   ; qtot -0.596921
 1857         c3     65    bbb     C1   1857 0.10137000  12.010000   ; qtot -0.495551
 1858         h1     65    bbb     H1   1858 0.04411300   1.008000   ; qtot -0.451438
 1859         h1     65    bbb     H2   1859 0.04411300   1.008000   ; qtot -0.407325
 1860         c3     65    bbb     C2   1860 0.10137000  12.010000   ; qtot -0.305955
 1861         h1     65    bbb     H3   1861 0.04411300   1.008000   ; qtot -0.261842
 1862         h1     65    bbb     H4   1862 0.04411300   1.008000   ; qtot -0.217729
 1863         c3     65    bbb     C3   1863 -0.00195300  12.010000   ; qtot -0.219682
 1864         h1     65    bbb     H5   1864 0.05064400   1.008000   ; qtot -0.169038
 1865         h1     65    bbb     H6   1865 0.05064400   1.008000   ; qtot -0.118394
 1866         c3     65    bbb     C4   1866 -0.01612100  12.010000   ; qtot -0.134515
 1867         hc     65    bbb     H7   1867 0.04936100   1.008000   ; qtot -0.085154
 1868         hc     65    bbb     H8   1868 0.04936100   1.008000   ; qtot -0.035793
 1869         c3     65    bbb     C5   1869 0.11363000  12.010000   ; qtot 0.077837
 1870         hc     65    bbb     H9   1870 0.06265900   1.008000   ; qtot 0.140496
 1871         hc     65    bbb    H10   1871 0.06265900   1.008000   ; qtot 0.203155
 1872         c3     65    bbb     C6   1872 0.11363000  12.010000   ; qtot 0.316785
 1873         hc     65    bbb    H11   1873 0.06265900   1.008000   ; qtot 0.379444
 1874         hc     65    bbb    H12   1874 0.06265900   1.008000   ; qtot 0.442103
 1875         c3     65    bbb     C7   1875 0.05858200  12.010000   ; qtot 0.500685
 1876         h1     65    bbb    H13   1876 0.06123400   1.008000   ; qtot 0.561919
 1877         h1     65    bbb    H14   1877 0.06123400   1.008000   ; qtot 0.623153
 1878         c3     65    bbb     C8   1878 -0.72423400  12.010000   ; qtot -0.101081
 1879         h1     65    bbb    H15   1879 0.25637600   1.008000   ; qtot 0.155295
 1880         h1     65    bbb    H16   1880 0.25637600   1.008000   ; qtot 0.411671
 1881         c3     65    bbb     C9   1881 -0.72423400  12.010000   ; qtot -0.312563
 1882         h1     65    bbb    H17   1882 0.25637600   1.008000   ; qtot -0.056187
 1883         h1     65    bbb    H18   1883 0.25637600   1.008000   ; qtot 0.200189
 1884         os     65    bbb     O1   1884 -0.20025300  16.000000   ; qtot -0.000064
; residue   66 bbb rtp bbb q -0.0
 1885         n3     66    bbb     N1   1885 -0.59685800  14.010000   ; qtot -0.596922
 1886         c3     66    bbb     C1   1886 0.10137000  12.010000   ; qtot -0.495552
 1887         h1     66    bbb     H1   1887 0.04411300   1.008000   ; qtot -0.451439
 1888         h1     66    bbb     H2   1888 0.04411300   1.008000   ; qtot -0.407326
 1889         c3     66    bbb     C2   1889 0.10137000  12.010000   ; qtot -0.305956
 1890         h1     66    bbb     H3   1890 0.04411300   1.008000   ; qtot -0.261843
 1891         h1     66    bbb     H4   1891 0.04411300   1.008000   ; qtot -0.217730
 1892         c3     66    bbb     C3   1892 -0.00195300  12.010000   ; qtot -0.219683
 1893         h1     66    bbb     H5   1893 0.05064400   1.008000   ; qtot -0.169039
 1894         h1     66    bbb     H6   1894 0.05064400   1.008000   ; qtot -0.118395
 1895         c3     66    bbb     C4   1895 -0.01612100  12.010000   ; qtot -0.134516
 1896         hc     66    bbb     H7   1896 0.04936100   1.008000   ; qtot -0.085155
 1897         hc     66    bbb     H8   1897 0.04936100   1.008000   ; qtot -0.035794
 1898         c3     66    bbb     C5   1898 0.11363000  12.010000   ; qtot 0.077836
 1899         hc     66    bbb     H9   1899 0.06265900   1.008000   ; qtot 0.140495
 1900         hc     66    bbb    H10   1900 0.06265900   1.008000   ; qtot 0.203154
 1901         c3     66    bbb     C6   1901 0.11363000  12.010000   ; qtot 0.316784
 1902         hc     66    bbb    H11   1902 0.06265900   1.008000   ; qtot 0.379443
 1903         hc     66    bbb    H12   1903 0.06265900   1.008000   ; qtot 0.442102
 1904         c3     66    bbb     C7   1904 0.05858200  12.010000   ; qtot 0.500684
 1905         h1     66    bbb    H13   1905 0.06123400   1.008000   ; qtot 0.561918
 1906         h1     66    bbb    H14   1906 0.06123400   1.008000   ; qtot 0.623152
 1907         c3     66    bbb     C8   1907 -0.72423400  12.010000   ; qtot -0.101082
 1908         h1     66    bbb    H15   1908 0.25637600   1.008000   ; qtot 0.155294
 1909         h1     66    bbb    H16   1909 0.25637600   1.008000   ; qtot 0.411670
 1910         c3     66    bbb     C9   1910 -0.72423400  12.010000   ; qtot -0.312564
 1911         h1     66    bbb    H17   1911 0.25637600   1.008000   ; qtot -0.056188
 1912         h1     66    bbb    H18   1912 0.25637600   1.008000   ; qtot 0.200188
 1913         os     66    bbb     O1   1913 -0.20025300  16.000000   ; qtot -0.000065
; residue   67 bbb rtp bbb q -0.0
 1914         n3     67    bbb     N1   1914 -0.59685800  14.010000   ; qtot -0.596923
 1915         c3     67    bbb     C1   1915 0.10137000  12.010000   ; qtot -0.495553
 1916         h1     67    bbb     H1   1916 0.04411300   1.008000   ; qtot -0.451440
 1917         h1     67    bbb     H2   1917 0.04411300   1.008000   ; qtot -0.407327
 1918         c3     67    bbb     C2   1918 0.10137000  12.010000   ; qtot -0.305957
 1919         h1     67    bbb     H3   1919 0.04411300   1.008000   ; qtot -0.261844
 1920         h1     67    bbb     H4   1920 0.04411300   1.008000   ; qtot -0.217731
 1921         c3     67    bbb     C3   1921 -0.00195300  12.010000   ; qtot -0.219684
 1922         h1     67    bbb     H5   1922 0.05064400   1.008000   ; qtot -0.169040
 1923         h1     67    bbb     H6   1923 0.05064400   1.008000   ; qtot -0.118396
 1924         c3     67    bbb     C4   1924 -0.01612100  12.010000   ; qtot -0.134517
 1925         hc     67    bbb     H7   1925 0.04936100   1.008000   ; qtot -0.085156
 1926         hc     67    bbb     H8   1926 0.04936100   1.008000   ; qtot -0.035795
 1927         c3     67    bbb     C5   1927 0.11363000  12.010000   ; qtot 0.077835
 1928         hc     67    bbb     H9   1928 0.06265900   1.008000   ; qtot 0.140494
 1929         hc     67    bbb    H10   1929 0.06265900   1.008000   ; qtot 0.203153
 1930         c3     67    bbb     C6   1930 0.11363000  12.010000   ; qtot 0.316783
 1931         hc     67    bbb    H11   1931 0.06265900   1.008000   ; qtot 0.379442
 1932         hc     67    bbb    H12   1932 0.06265900   1.008000   ; qtot 0.442101
 1933         c3     67    bbb     C7   1933 0.05858200  12.010000   ; qtot 0.500683
 1934         h1     67    bbb    H13   1934 0.06123400   1.008000   ; qtot 0.561917
 1935         h1     67    bbb    H14   1935 0.06123400   1.008000   ; qtot 0.623151
 1936         c3     67    bbb     C8   1936 -0.72423400  12.010000   ; qtot -0.101083
 1937         h1     67    bbb    H15   1937 0.25637600   1.008000   ; qtot 0.155293
 1938         h1     67    bbb    H16   1938 0.25637600   1.008000   ; qtot 0.411669
 1939         c3     67    bbb     C9   1939 -0.72423400  12.010000   ; qtot -0.312565
 1940         h1     67    bbb    H17   1940 0.25637600   1.008000   ; qtot -0.056189
 1941         h1     67    bbb    H18   1941 0.25637600   1.008000   ; qtot 0.200187
 1942         os     67    bbb     O1   1942 -0.20025300  16.000000   ; qtot -0.000066
; residue   68 bbb rtp bbb q -0.0
 1943         n3     68    bbb     N1   1943 -0.59685800  14.010000   ; qtot -0.596924
 1944         c3     68    bbb     C1   1944 0.10137000  12.010000   ; qtot -0.495554
 1945         h1     68    bbb     H1   1945 0.04411300   1.008000   ; qtot -0.451441
 1946         h1     68    bbb     H2   1946 0.04411300   1.008000   ; qtot -0.407328
 1947         c3     68    bbb     C2   1947 0.10137000  12.010000   ; qtot -0.305958
 1948         h1     68    bbb     H3   1948 0.04411300   1.008000   ; qtot -0.261845
 1949         h1     68    bbb     H4   1949 0.04411300   1.008000   ; qtot -0.217732
 1950         c3     68    bbb     C3   1950 -0.00195300  12.010000   ; qtot -0.219685
 1951         h1     68    bbb     H5   1951 0.05064400   1.008000   ; qtot -0.169041
 1952         h1     68    bbb     H6   1952 0.05064400   1.008000   ; qtot -0.118397
 1953         c3     68    bbb     C4   1953 -0.01612100  12.010000   ; qtot -0.134518
 1954         hc     68    bbb     H7   1954 0.04936100   1.008000   ; qtot -0.085157
 1955         hc     68    bbb     H8   1955 0.04936100   1.008000   ; qtot -0.035796
 1956         c3     68    bbb     C5   1956 0.11363000  12.010000   ; qtot 0.077834
 1957         hc     68    bbb     H9   1957 0.06265900   1.008000   ; qtot 0.140493
 1958         hc     68    bbb    H10   1958 0.06265900   1.008000   ; qtot 0.203152
 1959         c3     68    bbb     C6   1959 0.11363000  12.010000   ; qtot 0.316782
 1960         hc     68    bbb    H11   1960 0.06265900   1.008000   ; qtot 0.379441
 1961         hc     68    bbb    H12   1961 0.06265900   1.008000   ; qtot 0.442100
 1962         c3     68    bbb     C7   1962 0.05858200  12.010000   ; qtot 0.500682
 1963         h1     68    bbb    H13   1963 0.06123400   1.008000   ; qtot 0.561916
 1964         h1     68    bbb    H14   1964 0.06123400   1.008000   ; qtot 0.623150
 1965         c3     68    bbb     C8   1965 -0.72423400  12.010000   ; qtot -0.101084
 1966         h1     68    bbb    H15   1966 0.25637600   1.008000   ; qtot 0.155292
 1967         h1     68    bbb    H16   1967 0.25637600   1.008000   ; qtot 0.411668
 1968         c3     68    bbb     C9   1968 -0.72423400  12.010000   ; qtot -0.312566
 1969         h1     68    bbb    H17   1969 0.25637600   1.008000   ; qtot -0.056190
 1970         h1     68    bbb    H18   1970 0.25637600   1.008000   ; qtot 0.200186
 1971         os     68    bbb     O1   1971 -0.20025300  16.000000   ; qtot -0.000067
; residue   69 bbb rtp bbb q -0.0
 1972         n3     69    bbb     N1   1972 -0.59685800  14.010000   ; qtot -0.596925
 1973         c3     69    bbb     C1   1973 0.10137000  12.010000   ; qtot -0.495555
 1974         h1     69    bbb     H1   1974 0.04411300   1.008000   ; qtot -0.451442
 1975         h1     69    bbb     H2   1975 0.04411300   1.008000   ; qtot -0.407329
 1976         c3     69    bbb     C2   1976 0.10137000  12.010000   ; qtot -0.305959
 1977         h1     69    bbb     H3   1977 0.04411300   1.008000   ; qtot -0.261846
 1978         h1     69    bbb     H4   1978 0.04411300   1.008000   ; qtot -0.217733
 1979         c3     69    bbb     C3   1979 -0.00195300  12.010000   ; qtot -0.219686
 1980         h1     69    bbb     H5   1980 0.05064400   1.008000   ; qtot -0.169042
 1981         h1     69    bbb     H6   1981 0.05064400   1.008000   ; qtot -0.118398
 1982         c3     69    bbb     C4   1982 -0.01612100  12.010000   ; qtot -0.134519
 1983         hc     69    bbb     H7   1983 0.04936100   1.008000   ; qtot -0.085158
 1984         hc     69    bbb     H8   1984 0.04936100   1.008000   ; qtot -0.035797
 1985         c3     69    bbb     C5   1985 0.11363000  12.010000   ; qtot 0.077833
 1986         hc     69    bbb     H9   1986 0.06265900   1.008000   ; qtot 0.140492
 1987         hc     69    bbb    H10   1987 0.06265900   1.008000   ; qtot 0.203151
 1988         c3     69    bbb     C6   1988 0.11363000  12.010000   ; qtot 0.316781
 1989         hc     69    bbb    H11   1989 0.06265900   1.008000   ; qtot 0.379440
 1990         hc     69    bbb    H12   1990 0.06265900   1.008000   ; qtot 0.442099
 1991         c3     69    bbb     C7   1991 0.05858200  12.010000   ; qtot 0.500681
 1992         h1     69    bbb    H13   1992 0.06123400   1.008000   ; qtot 0.561915
 1993         h1     69    bbb    H14   1993 0.06123400   1.008000   ; qtot 0.623149
 1994         c3     69    bbb     C8   1994 -0.72423400  12.010000   ; qtot -0.101085
 1995         h1     69    bbb    H15   1995 0.25637600   1.008000   ; qtot 0.155291
 1996         h1     69    bbb    H16   1996 0.25637600   1.008000   ; qtot 0.411667
 1997         c3     69    bbb     C9   1997 -0.72423400  12.010000   ; qtot -0.312567
 1998         h1     69    bbb    H17   1998 0.25637600   1.008000   ; qtot -0.056191
 1999         h1     69    bbb    H18   1999 0.25637600   1.008000   ; qtot 0.200185
 2000         os     69    bbb     O1   2000 -0.20025300  16.000000   ; qtot -0.000068
; residue   70 bbb rtp bbb q -0.0
 2001         n3     70    bbb     N1   2001 -0.59685800  14.010000   ; qtot -0.596926
 2002         c3     70    bbb     C1   2002 0.10137000  12.010000   ; qtot -0.495556
 2003         h1     70    bbb     H1   2003 0.04411300   1.008000   ; qtot -0.451443
 2004         h1     70    bbb     H2   2004 0.04411300   1.008000   ; qtot -0.407330
 2005         c3     70    bbb     C2   2005 0.10137000  12.010000   ; qtot -0.305960
 2006         h1     70    bbb     H3   2006 0.04411300   1.008000   ; qtot -0.261847
 2007         h1     70    bbb     H4   2007 0.04411300   1.008000   ; qtot -0.217734
 2008         c3     70    bbb     C3   2008 -0.00195300  12.010000   ; qtot -0.219687
 2009         h1     70    bbb     H5   2009 0.05064400   1.008000   ; qtot -0.169043
 2010         h1     70    bbb     H6   2010 0.05064400   1.008000   ; qtot -0.118399
 2011         c3     70    bbb     C4   2011 -0.01612100  12.010000   ; qtot -0.134520
 2012         hc     70    bbb     H7   2012 0.04936100   1.008000   ; qtot -0.085159
 2013         hc     70    bbb     H8   2013 0.04936100   1.008000   ; qtot -0.035798
 2014         c3     70    bbb     C5   2014 0.11363000  12.010000   ; qtot 0.077832
 2015         hc     70    bbb     H9   2015 0.06265900   1.008000   ; qtot 0.140491
 2016         hc     70    bbb    H10   2016 0.06265900   1.008000   ; qtot 0.203150
 2017         c3     70    bbb     C6   2017 0.11363000  12.010000   ; qtot 0.316780
 2018         hc     70    bbb    H11   2018 0.06265900   1.008000   ; qtot 0.379439
 2019         hc     70    bbb    H12   2019 0.06265900   1.008000   ; qtot 0.442098
 2020         c3     70    bbb     C7   2020 0.05858200  12.010000   ; qtot 0.500680
 2021         h1     70    bbb    H13   2021 0.06123400   1.008000   ; qtot 0.561914
 2022         h1     70    bbb    H14   2022 0.06123400   1.008000   ; qtot 0.623148
 2023         c3     70    bbb     C8   2023 -0.72423400  12.010000   ; qtot -0.101086
 2024         h1     70    bbb    H15   2024 0.25637600   1.008000   ; qtot 0.155290
 2025         h1     70    bbb    H16   2025 0.25637600   1.008000   ; qtot 0.411666
 2026         c3     70    bbb     C9   2026 -0.72423400  12.010000   ; qtot -0.312568
 2027         h1     70    bbb    H17   2027 0.25637600   1.008000   ; qtot -0.056192
 2028         h1     70    bbb    H18   2028 0.25637600   1.008000   ; qtot 0.200184
 2029         os     70    bbb     O1   2029 -0.20025300  16.000000   ; qtot -0.000069
; residue   71 bbb rtp bbb q -0.0
 2030         n3     71    bbb     N1   2030 -0.59685800  14.010000   ; qtot -0.596927
 2031         c3     71    bbb     C1   2031 0.10137000  12.010000   ; qtot -0.495557
 2032         h1     71    bbb     H1   2032 0.04411300   1.008000   ; qtot -0.451444
 2033         h1     71    bbb     H2   2033 0.04411300   1.008000   ; qtot -0.407331
 2034         c3     71    bbb     C2   2034 0.10137000  12.010000   ; qtot -0.305961
 2035         h1     71    bbb     H3   2035 0.04411300   1.008000   ; qtot -0.261848
 2036         h1     71    bbb     H4   2036 0.04411300   1.008000   ; qtot -0.217735
 2037         c3     71    bbb     C3   2037 -0.00195300  12.010000   ; qtot -0.219688
 2038         h1     71    bbb     H5   2038 0.05064400   1.008000   ; qtot -0.169044
 2039         h1     71    bbb     H6   2039 0.05064400   1.008000   ; qtot -0.118400
 2040         c3     71    bbb     C4   2040 -0.01612100  12.010000   ; qtot -0.134521
 2041         hc     71    bbb     H7   2041 0.04936100   1.008000   ; qtot -0.085160
 2042         hc     71    bbb     H8   2042 0.04936100   1.008000   ; qtot -0.035799
 2043         c3     71    bbb     C5   2043 0.11363000  12.010000   ; qtot 0.077831
 2044         hc     71    bbb     H9   2044 0.06265900   1.008000   ; qtot 0.140490
 2045         hc     71    bbb    H10   2045 0.06265900   1.008000   ; qtot 0.203149
 2046         c3     71    bbb     C6   2046 0.11363000  12.010000   ; qtot 0.316779
 2047         hc     71    bbb    H11   2047 0.06265900   1.008000   ; qtot 0.379438
 2048         hc     71    bbb    H12   2048 0.06265900   1.008000   ; qtot 0.442097
 2049         c3     71    bbb     C7   2049 0.05858200  12.010000   ; qtot 0.500679
 2050         h1     71    bbb    H13   2050 0.06123400   1.008000   ; qtot 0.561913
 2051         h1     71    bbb    H14   2051 0.06123400   1.008000   ; qtot 0.623147
 2052         c3     71    bbb     C8   2052 -0.72423400  12.010000   ; qtot -0.101087
 2053         h1     71    bbb    H15   2053 0.25637600   1.008000   ; qtot 0.155289
 2054         h1     71    bbb    H16   2054 0.25637600   1.008000   ; qtot 0.411665
 2055         c3     71    bbb     C9   2055 -0.72423400  12.010000   ; qtot -0.312569
 2056         h1     71    bbb    H17   2056 0.25637600   1.008000   ; qtot -0.056193
 2057         h1     71    bbb    H18   2057 0.25637600   1.008000   ; qtot 0.200183
 2058         os     71    bbb     O1   2058 -0.20025300  16.000000   ; qtot -0.000070
; residue   72 bbb rtp bbb q -0.0
 2059         n3     72    bbb     N1   2059 -0.59685800  14.010000   ; qtot -0.596928
 2060         c3     72    bbb     C1   2060 0.10137000  12.010000   ; qtot -0.495558
 2061         h1     72    bbb     H1   2061 0.04411300   1.008000   ; qtot -0.451445
 2062         h1     72    bbb     H2   2062 0.04411300   1.008000   ; qtot -0.407332
 2063         c3     72    bbb     C2   2063 0.10137000  12.010000   ; qtot -0.305962
 2064         h1     72    bbb     H3   2064 0.04411300   1.008000   ; qtot -0.261849
 2065         h1     72    bbb     H4   2065 0.04411300   1.008000   ; qtot -0.217736
 2066         c3     72    bbb     C3   2066 -0.00195300  12.010000   ; qtot -0.219689
 2067         h1     72    bbb     H5   2067 0.05064400   1.008000   ; qtot -0.169045
 2068         h1     72    bbb     H6   2068 0.05064400   1.008000   ; qtot -0.118401
 2069         c3     72    bbb     C4   2069 -0.01612100  12.010000   ; qtot -0.134522
 2070         hc     72    bbb     H7   2070 0.04936100   1.008000   ; qtot -0.085161
 2071         hc     72    bbb     H8   2071 0.04936100   1.008000   ; qtot -0.035800
 2072         c3     72    bbb     C5   2072 0.11363000  12.010000   ; qtot 0.077830
 2073         hc     72    bbb     H9   2073 0.06265900   1.008000   ; qtot 0.140489
 2074         hc     72    bbb    H10   2074 0.06265900   1.008000   ; qtot 0.203148
 2075         c3     72    bbb     C6   2075 0.11363000  12.010000   ; qtot 0.316778
 2076         hc     72    bbb    H11   2076 0.06265900   1.008000   ; qtot 0.379437
 2077         hc     72    bbb    H12   2077 0.06265900   1.008000   ; qtot 0.442096
 2078         c3     72    bbb     C7   2078 0.05858200  12.010000   ; qtot 0.500678
 2079         h1     72    bbb    H13   2079 0.06123400   1.008000   ; qtot 0.561912
 2080         h1     72    bbb    H14   2080 0.06123400   1.008000   ; qtot 0.623146
 2081         c3     72    bbb     C8   2081 -0.72423400  12.010000   ; qtot -0.101088
 2082         h1     72    bbb    H15   2082 0.25637600   1.008000   ; qtot 0.155288
 2083         h1     72    bbb    H16   2083 0.25637600   1.008000   ; qtot 0.411664
 2084         c3     72    bbb     C9   2084 -0.72423400  12.010000   ; qtot -0.312570
 2085         h1     72    bbb    H17   2085 0.25637600   1.008000   ; qtot -0.056194
 2086         h1     72    bbb    H18   2086 0.25637600   1.008000   ; qtot 0.200182
 2087         os     72    bbb     O1   2087 -0.20025300  16.000000   ; qtot -0.000071
; residue   73 bbb rtp bbb q -0.0
 2088         n3     73    bbb     N1   2088 -0.59685800  14.010000   ; qtot -0.596929
 2089         c3     73    bbb     C1   2089 0.10137000  12.010000   ; qtot -0.495559
 2090         h1     73    bbb     H1   2090 0.04411300   1.008000   ; qtot -0.451446
 2091         h1     73    bbb     H2   2091 0.04411300   1.008000   ; qtot -0.407333
 2092         c3     73    bbb     C2   2092 0.10137000  12.010000   ; qtot -0.305963
 2093         h1     73    bbb     H3   2093 0.04411300   1.008000   ; qtot -0.261850
 2094         h1     73    bbb     H4   2094 0.04411300   1.008000   ; qtot -0.217737
 2095         c3     73    bbb     C3   2095 -0.00195300  12.010000   ; qtot -0.219690
 2096         h1     73    bbb     H5   2096 0.05064400   1.008000   ; qtot -0.169046
 2097         h1     73    bbb     H6   2097 0.05064400   1.008000   ; qtot -0.118402
 2098         c3     73    bbb     C4   2098 -0.01612100  12.010000   ; qtot -0.134523
 2099         hc     73    bbb     H7   2099 0.04936100   1.008000   ; qtot -0.085162
 2100         hc     73    bbb     H8   2100 0.04936100   1.008000   ; qtot -0.035801
 2101         c3     73    bbb     C5   2101 0.11363000  12.010000   ; qtot 0.077829
 2102         hc     73    bbb     H9   2102 0.06265900   1.008000   ; qtot 0.140488
 2103         hc     73    bbb    H10   2103 0.06265900   1.008000   ; qtot 0.203147
 2104         c3     73    bbb     C6   2104 0.11363000  12.010000   ; qtot 0.316777
 2105         hc     73    bbb    H11   2105 0.06265900   1.008000   ; qtot 0.379436
 2106         hc     73    bbb    H12   2106 0.06265900   1.008000   ; qtot 0.442095
 2107         c3     73    bbb     C7   2107 0.05858200  12.010000   ; qtot 0.500677
 2108         h1     73    bbb    H13   2108 0.06123400   1.008000   ; qtot 0.561911
 2109         h1     73    bbb    H14   2109 0.06123400   1.008000   ; qtot 0.623145
 2110         c3     73    bbb     C8   2110 -0.72423400  12.010000   ; qtot -0.101089
 2111         h1     73    bbb    H15   2111 0.25637600   1.008000   ; qtot 0.155287
 2112         h1     73    bbb    H16   2112 0.25637600   1.008000   ; qtot 0.411663
 2113         c3     73    bbb     C9   2113 -0.72423400  12.010000   ; qtot -0.312571
 2114         h1     73    bbb    H17   2114 0.25637600   1.008000   ; qtot -0.056195
 2115         h1     73    bbb    H18   2115 0.25637600   1.008000   ; qtot 0.200181
 2116         os     73    bbb     O1   2116 -0.20025300  16.000000   ; qtot -0.000072
; residue   74 bbb rtp bbb q -0.0
 2117         n3     74    bbb     N1   2117 -0.59685800  14.010000   ; qtot -0.596930
 2118         c3     74    bbb     C1   2118 0.10137000  12.010000   ; qtot -0.495560
 2119         h1     74    bbb     H1   2119 0.04411300   1.008000   ; qtot -0.451447
 2120         h1     74    bbb     H2   2120 0.04411300   1.008000   ; qtot -0.407334
 2121         c3     74    bbb     C2   2121 0.10137000  12.010000   ; qtot -0.305964
 2122         h1     74    bbb     H3   2122 0.04411300   1.008000   ; qtot -0.261851
 2123         h1     74    bbb     H4   2123 0.04411300   1.008000   ; qtot -0.217738
 2124         c3     74    bbb     C3   2124 -0.00195300  12.010000   ; qtot -0.219691
 2125         h1     74    bbb     H5   2125 0.05064400   1.008000   ; qtot -0.169047
 2126         h1     74    bbb     H6   2126 0.05064400   1.008000   ; qtot -0.118403
 2127         c3     74    bbb     C4   2127 -0.01612100  12.010000   ; qtot -0.134524
 2128         hc     74    bbb     H7   2128 0.04936100   1.008000   ; qtot -0.085163
 2129         hc     74    bbb     H8   2129 0.04936100   1.008000   ; qtot -0.035802
 2130         c3     74    bbb     C5   2130 0.11363000  12.010000   ; qtot 0.077828
 2131         hc     74    bbb     H9   2131 0.06265900   1.008000   ; qtot 0.140487
 2132         hc     74    bbb    H10   2132 0.06265900   1.008000   ; qtot 0.203146
 2133         c3     74    bbb     C6   2133 0.11363000  12.010000   ; qtot 0.316776
 2134         hc     74    bbb    H11   2134 0.06265900   1.008000   ; qtot 0.379435
 2135         hc     74    bbb    H12   2135 0.06265900   1.008000   ; qtot 0.442094
 2136         c3     74    bbb     C7   2136 0.05858200  12.010000   ; qtot 0.500676
 2137         h1     74    bbb    H13   2137 0.06123400   1.008000   ; qtot 0.561910
 2138         h1     74    bbb    H14   2138 0.06123400   1.008000   ; qtot 0.623144
 2139         c3     74    bbb     C8   2139 -0.72423400  12.010000   ; qtot -0.101090
 2140         h1     74    bbb    H15   2140 0.25637600   1.008000   ; qtot 0.155286
 2141         h1     74    bbb    H16   2141 0.25637600   1.008000   ; qtot 0.411662
 2142         c3     74    bbb     C9   2142 -0.72423400  12.010000   ; qtot -0.312572
 2143         h1     74    bbb    H17   2143 0.25637600   1.008000   ; qtot -0.056196
 2144         h1     74    bbb    H18   2144 0.25637600   1.008000   ; qtot 0.200180
 2145         os     74    bbb     O1   2145 -0.20025300  16.000000   ; qtot -0.000073
; residue   75 bbb rtp bbb q -0.0
 2146         n3     75    bbb     N1   2146 -0.59685800  14.010000   ; qtot -0.596931
 2147         c3     75    bbb     C1   2147 0.10137000  12.010000   ; qtot -0.495561
 2148         h1     75    bbb     H1   2148 0.04411300   1.008000   ; qtot -0.451448
 2149         h1     75    bbb     H2   2149 0.04411300   1.008000   ; qtot -0.407335
 2150         c3     75    bbb     C2   2150 0.10137000  12.010000   ; qtot -0.305965
 2151         h1     75    bbb     H3   2151 0.04411300   1.008000   ; qtot -0.261852
 2152         h1     75    bbb     H4   2152 0.04411300   1.008000   ; qtot -0.217739
 2153         c3     75    bbb     C3   2153 -0.00195300  12.010000   ; qtot -0.219692
 2154         h1     75    bbb     H5   2154 0.05064400   1.008000   ; qtot -0.169048
 2155         h1     75    bbb     H6   2155 0.05064400   1.008000   ; qtot -0.118404
 2156         c3     75    bbb     C4   2156 -0.01612100  12.010000   ; qtot -0.134525
 2157         hc     75    bbb     H7   2157 0.04936100   1.008000   ; qtot -0.085164
 2158         hc     75    bbb     H8   2158 0.04936100   1.008000   ; qtot -0.035803
 2159         c3     75    bbb     C5   2159 0.11363000  12.010000   ; qtot 0.077827
 2160         hc     75    bbb     H9   2160 0.06265900   1.008000   ; qtot 0.140486
 2161         hc     75    bbb    H10   2161 0.06265900   1.008000   ; qtot 0.203145
 2162         c3     75    bbb     C6   2162 0.11363000  12.010000   ; qtot 0.316775
 2163         hc     75    bbb    H11   2163 0.06265900   1.008000   ; qtot 0.379434
 2164         hc     75    bbb    H12   2164 0.06265900   1.008000   ; qtot 0.442093
 2165         c3     75    bbb     C7   2165 0.05858200  12.010000   ; qtot 0.500675
 2166         h1     75    bbb    H13   2166 0.06123400   1.008000   ; qtot 0.561909
 2167         h1     75    bbb    H14   2167 0.06123400   1.008000   ; qtot 0.623143
 2168         c3     75    bbb     C8   2168 -0.72423400  12.010000   ; qtot -0.101091
 2169         h1     75    bbb    H15   2169 0.25637600   1.008000   ; qtot 0.155285
 2170         h1     75    bbb    H16   2170 0.25637600   1.008000   ; qtot 0.411661
 2171         c3     75    bbb     C9   2171 -0.72423400  12.010000   ; qtot -0.312573
 2172         h1     75    bbb    H17   2172 0.25637600   1.008000   ; qtot -0.056197
 2173         h1     75    bbb    H18   2173 0.25637600   1.008000   ; qtot 0.200179
 2174         os     75    bbb     O1   2174 -0.20025300  16.000000   ; qtot -0.000074
; residue   76 bbb rtp bbb q -0.0
 2175         n3     76    bbb     N1   2175 -0.59685800  14.010000   ; qtot -0.596932
 2176         c3     76    bbb     C1   2176 0.10137000  12.010000   ; qtot -0.495562
 2177         h1     76    bbb     H1   2177 0.04411300   1.008000   ; qtot -0.451449
 2178         h1     76    bbb     H2   2178 0.04411300   1.008000   ; qtot -0.407336
 2179         c3     76    bbb     C2   2179 0.10137000  12.010000   ; qtot -0.305966
 2180         h1     76    bbb     H3   2180 0.04411300   1.008000   ; qtot -0.261853
 2181         h1     76    bbb     H4   2181 0.04411300   1.008000   ; qtot -0.217740
 2182         c3     76    bbb     C3   2182 -0.00195300  12.010000   ; qtot -0.219693
 2183         h1     76    bbb     H5   2183 0.05064400   1.008000   ; qtot -0.169049
 2184         h1     76    bbb     H6   2184 0.05064400   1.008000   ; qtot -0.118405
 2185         c3     76    bbb     C4   2185 -0.01612100  12.010000   ; qtot -0.134526
 2186         hc     76    bbb     H7   2186 0.04936100   1.008000   ; qtot -0.085165
 2187         hc     76    bbb     H8   2187 0.04936100   1.008000   ; qtot -0.035804
 2188         c3     76    bbb     C5   2188 0.11363000  12.010000   ; qtot 0.077826
 2189         hc     76    bbb     H9   2189 0.06265900   1.008000   ; qtot 0.140485
 2190         hc     76    bbb    H10   2190 0.06265900   1.008000   ; qtot 0.203144
 2191         c3     76    bbb     C6   2191 0.11363000  12.010000   ; qtot 0.316774
 2192         hc     76    bbb    H11   2192 0.06265900   1.008000   ; qtot 0.379433
 2193         hc     76    bbb    H12   2193 0.06265900   1.008000   ; qtot 0.442092
 2194         c3     76    bbb     C7   2194 0.05858200  12.010000   ; qtot 0.500674
 2195         h1     76    bbb    H13   2195 0.06123400   1.008000   ; qtot 0.561908
 2196         h1     76    bbb    H14   2196 0.06123400   1.008000   ; qtot 0.623142
 2197         c3     76    bbb     C8   2197 -0.72423400  12.010000   ; qtot -0.101092
 2198         h1     76    bbb    H15   2198 0.25637600   1.008000   ; qtot 0.155284
 2199         h1     76    bbb    H16   2199 0.25637600   1.008000   ; qtot 0.411660
 2200         c3     76    bbb     C9   2200 -0.72423400  12.010000   ; qtot -0.312574
 2201         h1     76    bbb    H17   2201 0.25637600   1.008000   ; qtot -0.056198
 2202         h1     76    bbb    H18   2202 0.25637600   1.008000   ; qtot 0.200178
 2203         os     76    bbb     O1   2203 -0.20025300  16.000000   ; qtot -0.000075
; residue   77 bbb rtp bbb q -0.0
 2204         n3     77    bbb     N1   2204 -0.59685800  14.010000   ; qtot -0.596933
 2205         c3     77    bbb     C1   2205 0.10137000  12.010000   ; qtot -0.495563
 2206         h1     77    bbb     H1   2206 0.04411300   1.008000   ; qtot -0.451450
 2207         h1     77    bbb     H2   2207 0.04411300   1.008000   ; qtot -0.407337
 2208         c3     77    bbb     C2   2208 0.10137000  12.010000   ; qtot -0.305967
 2209         h1     77    bbb     H3   2209 0.04411300   1.008000   ; qtot -0.261854
 2210         h1     77    bbb     H4   2210 0.04411300   1.008000   ; qtot -0.217741
 2211         c3     77    bbb     C3   2211 -0.00195300  12.010000   ; qtot -0.219694
 2212         h1     77    bbb     H5   2212 0.05064400   1.008000   ; qtot -0.169050
 2213         h1     77    bbb     H6   2213 0.05064400   1.008000   ; qtot -0.118406
 2214         c3     77    bbb     C4   2214 -0.01612100  12.010000   ; qtot -0.134527
 2215         hc     77    bbb     H7   2215 0.04936100   1.008000   ; qtot -0.085166
 2216         hc     77    bbb     H8   2216 0.04936100   1.008000   ; qtot -0.035805
 2217         c3     77    bbb     C5   2217 0.11363000  12.010000   ; qtot 0.077825
 2218         hc     77    bbb     H9   2218 0.06265900   1.008000   ; qtot 0.140484
 2219         hc     77    bbb    H10   2219 0.06265900   1.008000   ; qtot 0.203143
 2220         c3     77    bbb     C6   2220 0.11363000  12.010000   ; qtot 0.316773
 2221         hc     77    bbb    H11   2221 0.06265900   1.008000   ; qtot 0.379432
 2222         hc     77    bbb    H12   2222 0.06265900   1.008000   ; qtot 0.442091
 2223         c3     77    bbb     C7   2223 0.05858200  12.010000   ; qtot 0.500673
 2224         h1     77    bbb    H13   2224 0.06123400   1.008000   ; qtot 0.561907
 2225         h1     77    bbb    H14   2225 0.06123400   1.008000   ; qtot 0.623141
 2226         c3     77    bbb     C8   2226 -0.72423400  12.010000   ; qtot -0.101093
 2227         h1     77    bbb    H15   2227 0.25637600   1.008000   ; qtot 0.155283
 2228         h1     77    bbb    H16   2228 0.25637600   1.008000   ; qtot 0.411659
 2229         c3     77    bbb     C9   2229 -0.72423400  12.010000   ; qtot -0.312575
 2230         h1     77    bbb    H17   2230 0.25637600   1.008000   ; qtot -0.056199
 2231         h1     77    bbb    H18   2231 0.25637600   1.008000   ; qtot 0.200177
 2232         os     77    bbb     O1   2232 -0.20025300  16.000000   ; qtot -0.000076
; residue   78 bbb rtp bbb q -0.0
 2233         n3     78    bbb     N1   2233 -0.59685800  14.010000   ; qtot -0.596934
 2234         c3     78    bbb     C1   2234 0.10137000  12.010000   ; qtot -0.495564
 2235         h1     78    bbb     H1   2235 0.04411300   1.008000   ; qtot -0.451451
 2236         h1     78    bbb     H2   2236 0.04411300   1.008000   ; qtot -0.407338
 2237         c3     78    bbb     C2   2237 0.10137000  12.010000   ; qtot -0.305968
 2238         h1     78    bbb     H3   2238 0.04411300   1.008000   ; qtot -0.261855
 2239         h1     78    bbb     H4   2239 0.04411300   1.008000   ; qtot -0.217742
 2240         c3     78    bbb     C3   2240 -0.00195300  12.010000   ; qtot -0.219695
 2241         h1     78    bbb     H5   2241 0.05064400   1.008000   ; qtot -0.169051
 2242         h1     78    bbb     H6   2242 0.05064400   1.008000   ; qtot -0.118407
 2243         c3     78    bbb     C4   2243 -0.01612100  12.010000   ; qtot -0.134528
 2244         hc     78    bbb     H7   2244 0.04936100   1.008000   ; qtot -0.085167
 2245         hc     78    bbb     H8   2245 0.04936100   1.008000   ; qtot -0.035806
 2246         c3     78    bbb     C5   2246 0.11363000  12.010000   ; qtot 0.077824
 2247         hc     78    bbb     H9   2247 0.06265900   1.008000   ; qtot 0.140483
 2248         hc     78    bbb    H10   2248 0.06265900   1.008000   ; qtot 0.203142
 2249         c3     78    bbb     C6   2249 0.11363000  12.010000   ; qtot 0.316772
 2250         hc     78    bbb    H11   2250 0.06265900   1.008000   ; qtot 0.379431
 2251         hc     78    bbb    H12   2251 0.06265900   1.008000   ; qtot 0.442090
 2252         c3     78    bbb     C7   2252 0.05858200  12.010000   ; qtot 0.500672
 2253         h1     78    bbb    H13   2253 0.06123400   1.008000   ; qtot 0.561906
 2254         h1     78    bbb    H14   2254 0.06123400   1.008000   ; qtot 0.623140
 2255         c3     78    bbb     C8   2255 -0.72423400  12.010000   ; qtot -0.101094
 2256         h1     78    bbb    H15   2256 0.25637600   1.008000   ; qtot 0.155282
 2257         h1     78    bbb    H16   2257 0.25637600   1.008000   ; qtot 0.411658
 2258         c3     78    bbb     C9   2258 -0.72423400  12.010000   ; qtot -0.312576
 2259         h1     78    bbb    H17   2259 0.25637600   1.008000   ; qtot -0.056200
 2260         h1     78    bbb    H18   2260 0.25637600   1.008000   ; qtot 0.200176
 2261         os     78    bbb     O1   2261 -0.20025300  16.000000   ; qtot -0.000077
; residue   79 bbb rtp bbb q -0.0
 2262         n3     79    bbb     N1   2262 -0.59685800  14.010000   ; qtot -0.596935
 2263         c3     79    bbb     C1   2263 0.10137000  12.010000   ; qtot -0.495565
 2264         h1     79    bbb     H1   2264 0.04411300   1.008000   ; qtot -0.451452
 2265         h1     79    bbb     H2   2265 0.04411300   1.008000   ; qtot -0.407339
 2266         c3     79    bbb     C2   2266 0.10137000  12.010000   ; qtot -0.305969
 2267         h1     79    bbb     H3   2267 0.04411300   1.008000   ; qtot -0.261856
 2268         h1     79    bbb     H4   2268 0.04411300   1.008000   ; qtot -0.217743
 2269         c3     79    bbb     C3   2269 -0.00195300  12.010000   ; qtot -0.219696
 2270         h1     79    bbb     H5   2270 0.05064400   1.008000   ; qtot -0.169052
 2271         h1     79    bbb     H6   2271 0.05064400   1.008000   ; qtot -0.118408
 2272         c3     79    bbb     C4   2272 -0.01612100  12.010000   ; qtot -0.134529
 2273         hc     79    bbb     H7   2273 0.04936100   1.008000   ; qtot -0.085168
 2274         hc     79    bbb     H8   2274 0.04936100   1.008000   ; qtot -0.035807
 2275         c3     79    bbb     C5   2275 0.11363000  12.010000   ; qtot 0.077823
 2276         hc     79    bbb     H9   2276 0.06265900   1.008000   ; qtot 0.140482
 2277         hc     79    bbb    H10   2277 0.06265900   1.008000   ; qtot 0.203141
 2278         c3     79    bbb     C6   2278 0.11363000  12.010000   ; qtot 0.316771
 2279         hc     79    bbb    H11   2279 0.06265900   1.008000   ; qtot 0.379430
 2280         hc     79    bbb    H12   2280 0.06265900   1.008000   ; qtot 0.442089
 2281         c3     79    bbb     C7   2281 0.05858200  12.010000   ; qtot 0.500671
 2282         h1     79    bbb    H13   2282 0.06123400   1.008000   ; qtot 0.561905
 2283         h1     79    bbb    H14   2283 0.06123400   1.008000   ; qtot 0.623139
 2284         c3     79    bbb     C8   2284 -0.72423400  12.010000   ; qtot -0.101095
 2285         h1     79    bbb    H15   2285 0.25637600   1.008000   ; qtot 0.155281
 2286         h1     79    bbb    H16   2286 0.25637600   1.008000   ; qtot 0.411657
 2287         c3     79    bbb     C9   2287 -0.72423400  12.010000   ; qtot -0.312577
 2288         h1     79    bbb    H17   2288 0.25637600   1.008000   ; qtot -0.056201
 2289         h1     79    bbb    H18   2289 0.25637600   1.008000   ; qtot 0.200175
 2290         os     79    bbb     O1   2290 -0.20025300  16.000000   ; qtot -0.000078
; residue   80 bbb rtp bbb q -0.0
 2291         n3     80    bbb     N1   2291 -0.59685800  14.010000   ; qtot -0.596936
 2292         c3     80    bbb     C1   2292 0.10137000  12.010000   ; qtot -0.495566
 2293         h1     80    bbb     H1   2293 0.04411300   1.008000   ; qtot -0.451453
 2294         h1     80    bbb     H2   2294 0.04411300   1.008000   ; qtot -0.407340
 2295         c3     80    bbb     C2   2295 0.10137000  12.010000   ; qtot -0.305970
 2296         h1     80    bbb     H3   2296 0.04411300   1.008000   ; qtot -0.261857
 2297         h1     80    bbb     H4   2297 0.04411300   1.008000   ; qtot -0.217744
 2298         c3     80    bbb     C3   2298 -0.00195300  12.010000   ; qtot -0.219697
 2299         h1     80    bbb     H5   2299 0.05064400   1.008000   ; qtot -0.169053
 2300         h1     80    bbb     H6   2300 0.05064400   1.008000   ; qtot -0.118409
 2301         c3     80    bbb     C4   2301 -0.01612100  12.010000   ; qtot -0.134530
 2302         hc     80    bbb     H7   2302 0.04936100   1.008000   ; qtot -0.085169
 2303         hc     80    bbb     H8   2303 0.04936100   1.008000   ; qtot -0.035808
 2304         c3     80    bbb     C5   2304 0.11363000  12.010000   ; qtot 0.077822
 2305         hc     80    bbb     H9   2305 0.06265900   1.008000   ; qtot 0.140481
 2306         hc     80    bbb    H10   2306 0.06265900   1.008000   ; qtot 0.203140
 2307         c3     80    bbb     C6   2307 0.11363000  12.010000   ; qtot 0.316770
 2308         hc     80    bbb    H11   2308 0.06265900   1.008000   ; qtot 0.379429
 2309         hc     80    bbb    H12   2309 0.06265900   1.008000   ; qtot 0.442088
 2310         c3     80    bbb     C7   2310 0.05858200  12.010000   ; qtot 0.500670
 2311         h1     80    bbb    H13   2311 0.06123400   1.008000   ; qtot 0.561904
 2312         h1     80    bbb    H14   2312 0.06123400   1.008000   ; qtot 0.623138
 2313         c3     80    bbb     C8   2313 -0.72423400  12.010000   ; qtot -0.101096
 2314         h1     80    bbb    H15   2314 0.25637600   1.008000   ; qtot 0.155280
 2315         h1     80    bbb    H16   2315 0.25637600   1.008000   ; qtot 0.411656
 2316         c3     80    bbb     C9   2316 -0.72423400  12.010000   ; qtot -0.312578
 2317         h1     80    bbb    H17   2317 0.25637600   1.008000   ; qtot -0.056202
 2318         h1     80    bbb    H18   2318 0.25637600   1.008000   ; qtot 0.200174
 2319         os     80    bbb     O1   2319 -0.20025300  16.000000   ; qtot -0.000079
; residue   81 bbb rtp bbb q -0.0
 2320         n3     81    bbb     N1   2320 -0.59685800  14.010000   ; qtot -0.596937
 2321         c3     81    bbb     C1   2321 0.10137000  12.010000   ; qtot -0.495567
 2322         h1     81    bbb     H1   2322 0.04411300   1.008000   ; qtot -0.451454
 2323         h1     81    bbb     H2   2323 0.04411300   1.008000   ; qtot -0.407341
 2324         c3     81    bbb     C2   2324 0.10137000  12.010000   ; qtot -0.305971
 2325         h1     81    bbb     H3   2325 0.04411300   1.008000   ; qtot -0.261858
 2326         h1     81    bbb     H4   2326 0.04411300   1.008000   ; qtot -0.217745
 2327         c3     81    bbb     C3   2327 -0.00195300  12.010000   ; qtot -0.219698
 2328         h1     81    bbb     H5   2328 0.05064400   1.008000   ; qtot -0.169054
 2329         h1     81    bbb     H6   2329 0.05064400   1.008000   ; qtot -0.118410
 2330         c3     81    bbb     C4   2330 -0.01612100  12.010000   ; qtot -0.134531
 2331         hc     81    bbb     H7   2331 0.04936100   1.008000   ; qtot -0.085170
 2332         hc     81    bbb     H8   2332 0.04936100   1.008000   ; qtot -0.035809
 2333         c3     81    bbb     C5   2333 0.11363000  12.010000   ; qtot 0.077821
 2334         hc     81    bbb     H9   2334 0.06265900   1.008000   ; qtot 0.140480
 2335         hc     81    bbb    H10   2335 0.06265900   1.008000   ; qtot 0.203139
 2336         c3     81    bbb     C6   2336 0.11363000  12.010000   ; qtot 0.316769
 2337         hc     81    bbb    H11   2337 0.06265900   1.008000   ; qtot 0.379428
 2338         hc     81    bbb    H12   2338 0.06265900   1.008000   ; qtot 0.442087
 2339         c3     81    bbb     C7   2339 0.05858200  12.010000   ; qtot 0.500669
 2340         h1     81    bbb    H13   2340 0.06123400   1.008000   ; qtot 0.561903
 2341         h1     81    bbb    H14   2341 0.06123400   1.008000   ; qtot 0.623137
 2342         c3     81    bbb     C8   2342 -0.72423400  12.010000   ; qtot -0.101097
 2343         h1     81    bbb    H15   2343 0.25637600   1.008000   ; qtot 0.155279
 2344         h1     81    bbb    H16   2344 0.25637600   1.008000   ; qtot 0.411655
 2345         c3     81    bbb     C9   2345 -0.72423400  12.010000   ; qtot -0.312579
 2346         h1     81    bbb    H17   2346 0.25637600   1.008000   ; qtot -0.056203
 2347         h1     81    bbb    H18   2347 0.25637600   1.008000   ; qtot 0.200173
 2348         os     81    bbb     O1   2348 -0.20025300  16.000000   ; qtot -0.000080
; residue   82 bbb rtp bbb q -0.0
 2349         n3     82    bbb     N1   2349 -0.59685800  14.010000   ; qtot -0.596938
 2350         c3     82    bbb     C1   2350 0.10137000  12.010000   ; qtot -0.495568
 2351         h1     82    bbb     H1   2351 0.04411300   1.008000   ; qtot -0.451455
 2352         h1     82    bbb     H2   2352 0.04411300   1.008000   ; qtot -0.407342
 2353         c3     82    bbb     C2   2353 0.10137000  12.010000   ; qtot -0.305972
 2354         h1     82    bbb     H3   2354 0.04411300   1.008000   ; qtot -0.261859
 2355         h1     82    bbb     H4   2355 0.04411300   1.008000   ; qtot -0.217746
 2356         c3     82    bbb     C3   2356 -0.00195300  12.010000   ; qtot -0.219699
 2357         h1     82    bbb     H5   2357 0.05064400   1.008000   ; qtot -0.169055
 2358         h1     82    bbb     H6   2358 0.05064400   1.008000   ; qtot -0.118411
 2359         c3     82    bbb     C4   2359 -0.01612100  12.010000   ; qtot -0.134532
 2360         hc     82    bbb     H7   2360 0.04936100   1.008000   ; qtot -0.085171
 2361         hc     82    bbb     H8   2361 0.04936100   1.008000   ; qtot -0.035810
 2362         c3     82    bbb     C5   2362 0.11363000  12.010000   ; qtot 0.077820
 2363         hc     82    bbb     H9   2363 0.06265900   1.008000   ; qtot 0.140479
 2364         hc     82    bbb    H10   2364 0.06265900   1.008000   ; qtot 0.203138
 2365         c3     82    bbb     C6   2365 0.11363000  12.010000   ; qtot 0.316768
 2366         hc     82    bbb    H11   2366 0.06265900   1.008000   ; qtot 0.379427
 2367         hc     82    bbb    H12   2367 0.06265900   1.008000   ; qtot 0.442086
 2368         c3     82    bbb     C7   2368 0.05858200  12.010000   ; qtot 0.500668
 2369         h1     82    bbb    H13   2369 0.06123400   1.008000   ; qtot 0.561902
 2370         h1     82    bbb    H14   2370 0.06123400   1.008000   ; qtot 0.623136
 2371         c3     82    bbb     C8   2371 -0.72423400  12.010000   ; qtot -0.101098
 2372         h1     82    bbb    H15   2372 0.25637600   1.008000   ; qtot 0.155278
 2373         h1     82    bbb    H16   2373 0.25637600   1.008000   ; qtot 0.411654
 2374         c3     82    bbb     C9   2374 -0.72423400  12.010000   ; qtot -0.312580
 2375         h1     82    bbb    H17   2375 0.25637600   1.008000   ; qtot -0.056204
 2376         h1     82    bbb    H18   2376 0.25637600   1.008000   ; qtot 0.200172
 2377         os     82    bbb     O1   2377 -0.20025300  16.000000   ; qtot -0.000081
; residue   83 bbb rtp bbb q -0.0
 2378         n3     83    bbb     N1   2378 -0.59685800  14.010000   ; qtot -0.596939
 2379         c3     83    bbb     C1   2379 0.10137000  12.010000   ; qtot -0.495569
 2380         h1     83    bbb     H1   2380 0.04411300   1.008000   ; qtot -0.451456
 2381         h1     83    bbb     H2   2381 0.04411300   1.008000   ; qtot -0.407343
 2382         c3     83    bbb     C2   2382 0.10137000  12.010000   ; qtot -0.305973
 2383         h1     83    bbb     H3   2383 0.04411300   1.008000   ; qtot -0.261860
 2384         h1     83    bbb     H4   2384 0.04411300   1.008000   ; qtot -0.217747
 2385         c3     83    bbb     C3   2385 -0.00195300  12.010000   ; qtot -0.219700
 2386         h1     83    bbb     H5   2386 0.05064400   1.008000   ; qtot -0.169056
 2387         h1     83    bbb     H6   2387 0.05064400   1.008000   ; qtot -0.118412
 2388         c3     83    bbb     C4   2388 -0.01612100  12.010000   ; qtot -0.134533
 2389         hc     83    bbb     H7   2389 0.04936100   1.008000   ; qtot -0.085172
 2390         hc     83    bbb     H8   2390 0.04936100   1.008000   ; qtot -0.035811
 2391         c3     83    bbb     C5   2391 0.11363000  12.010000   ; qtot 0.077819
 2392         hc     83    bbb     H9   2392 0.06265900   1.008000   ; qtot 0.140478
 2393         hc     83    bbb    H10   2393 0.06265900   1.008000   ; qtot 0.203137
 2394         c3     83    bbb     C6   2394 0.11363000  12.010000   ; qtot 0.316767
 2395         hc     83    bbb    H11   2395 0.06265900   1.008000   ; qtot 0.379426
 2396         hc     83    bbb    H12   2396 0.06265900   1.008000   ; qtot 0.442085
 2397         c3     83    bbb     C7   2397 0.05858200  12.010000   ; qtot 0.500667
 2398         h1     83    bbb    H13   2398 0.06123400   1.008000   ; qtot 0.561901
 2399         h1     83    bbb    H14   2399 0.06123400   1.008000   ; qtot 0.623135
 2400         c3     83    bbb     C8   2400 -0.72423400  12.010000   ; qtot -0.101099
 2401         h1     83    bbb    H15   2401 0.25637600   1.008000   ; qtot 0.155277
 2402         h1     83    bbb    H16   2402 0.25637600   1.008000   ; qtot 0.411653
 2403         c3     83    bbb     C9   2403 -0.72423400  12.010000   ; qtot -0.312581
 2404         h1     83    bbb    H17   2404 0.25637600   1.008000   ; qtot -0.056205
 2405         h1     83    bbb    H18   2405 0.25637600   1.008000   ; qtot 0.200171
 2406         os     83    bbb     O1   2406 -0.20025300  16.000000   ; qtot -0.000082
; residue   84 bbb rtp bbb q -0.0
 2407         n3     84    bbb     N1   2407 -0.59685800  14.010000   ; qtot -0.596940
 2408         c3     84    bbb     C1   2408 0.10137000  12.010000   ; qtot -0.495570
 2409         h1     84    bbb     H1   2409 0.04411300   1.008000   ; qtot -0.451457
 2410         h1     84    bbb     H2   2410 0.04411300   1.008000   ; qtot -0.407344
 2411         c3     84    bbb     C2   2411 0.10137000  12.010000   ; qtot -0.305974
 2412         h1     84    bbb     H3   2412 0.04411300   1.008000   ; qtot -0.261861
 2413         h1     84    bbb     H4   2413 0.04411300   1.008000   ; qtot -0.217748
 2414         c3     84    bbb     C3   2414 -0.00195300  12.010000   ; qtot -0.219701
 2415         h1     84    bbb     H5   2415 0.05064400   1.008000   ; qtot -0.169057
 2416         h1     84    bbb     H6   2416 0.05064400   1.008000   ; qtot -0.118413
 2417         c3     84    bbb     C4   2417 -0.01612100  12.010000   ; qtot -0.134534
 2418         hc     84    bbb     H7   2418 0.04936100   1.008000   ; qtot -0.085173
 2419         hc     84    bbb     H8   2419 0.04936100   1.008000   ; qtot -0.035812
 2420         c3     84    bbb     C5   2420 0.11363000  12.010000   ; qtot 0.077818
 2421         hc     84    bbb     H9   2421 0.06265900   1.008000   ; qtot 0.140477
 2422         hc     84    bbb    H10   2422 0.06265900   1.008000   ; qtot 0.203136
 2423         c3     84    bbb     C6   2423 0.11363000  12.010000   ; qtot 0.316766
 2424         hc     84    bbb    H11   2424 0.06265900   1.008000   ; qtot 0.379425
 2425         hc     84    bbb    H12   2425 0.06265900   1.008000   ; qtot 0.442084
 2426         c3     84    bbb     C7   2426 0.05858200  12.010000   ; qtot 0.500666
 2427         h1     84    bbb    H13   2427 0.06123400   1.008000   ; qtot 0.561900
 2428         h1     84    bbb    H14   2428 0.06123400   1.008000   ; qtot 0.623134
 2429         c3     84    bbb     C8   2429 -0.72423400  12.010000   ; qtot -0.101100
 2430         h1     84    bbb    H15   2430 0.25637600   1.008000   ; qtot 0.155276
 2431         h1     84    bbb    H16   2431 0.25637600   1.008000   ; qtot 0.411652
 2432         c3     84    bbb     C9   2432 -0.72423400  12.010000   ; qtot -0.312582
 2433         h1     84    bbb    H17   2433 0.25637600   1.008000   ; qtot -0.056206
 2434         h1     84    bbb    H18   2434 0.25637600   1.008000   ; qtot 0.200170
 2435         os     84    bbb     O1   2435 -0.20025300  16.000000   ; qtot -0.000083
; residue   85 bbb rtp bbb q -0.0
 2436         n3     85    bbb     N1   2436 -0.59685800  14.010000   ; qtot -0.596941
 2437         c3     85    bbb     C1   2437 0.10137000  12.010000   ; qtot -0.495571
 2438         h1     85    bbb     H1   2438 0.04411300   1.008000   ; qtot -0.451458
 2439         h1     85    bbb     H2   2439 0.04411300   1.008000   ; qtot -0.407345
 2440         c3     85    bbb     C2   2440 0.10137000  12.010000   ; qtot -0.305975
 2441         h1     85    bbb     H3   2441 0.04411300   1.008000   ; qtot -0.261862
 2442         h1     85    bbb     H4   2442 0.04411300   1.008000   ; qtot -0.217749
 2443         c3     85    bbb     C3   2443 -0.00195300  12.010000   ; qtot -0.219702
 2444         h1     85    bbb     H5   2444 0.05064400   1.008000   ; qtot -0.169058
 2445         h1     85    bbb     H6   2445 0.05064400   1.008000   ; qtot -0.118414
 2446         c3     85    bbb     C4   2446 -0.01612100  12.010000   ; qtot -0.134535
 2447         hc     85    bbb     H7   2447 0.04936100   1.008000   ; qtot -0.085174
 2448         hc     85    bbb     H8   2448 0.04936100   1.008000   ; qtot -0.035813
 2449         c3     85    bbb     C5   2449 0.11363000  12.010000   ; qtot 0.077817
 2450         hc     85    bbb     H9   2450 0.06265900   1.008000   ; qtot 0.140476
 2451         hc     85    bbb    H10   2451 0.06265900   1.008000   ; qtot 0.203135
 2452         c3     85    bbb     C6   2452 0.11363000  12.010000   ; qtot 0.316765
 2453         hc     85    bbb    H11   2453 0.06265900   1.008000   ; qtot 0.379424
 2454         hc     85    bbb    H12   2454 0.06265900   1.008000   ; qtot 0.442083
 2455         c3     85    bbb     C7   2455 0.05858200  12.010000   ; qtot 0.500665
 2456         h1     85    bbb    H13   2456 0.06123400   1.008000   ; qtot 0.561899
 2457         h1     85    bbb    H14   2457 0.06123400   1.008000   ; qtot 0.623133
 2458         c3     85    bbb     C8   2458 -0.72423400  12.010000   ; qtot -0.101101
 2459         h1     85    bbb    H15   2459 0.25637600   1.008000   ; qtot 0.155275
 2460         h1     85    bbb    H16   2460 0.25637600   1.008000   ; qtot 0.411651
 2461         c3     85    bbb     C9   2461 -0.72423400  12.010000   ; qtot -0.312583
 2462         h1     85    bbb    H17   2462 0.25637600   1.008000   ; qtot -0.056207
 2463         h1     85    bbb    H18   2463 0.25637600   1.008000   ; qtot 0.200169
 2464         os     85    bbb     O1   2464 -0.20025300  16.000000   ; qtot -0.000084
; residue   86 bbb rtp bbb q -0.0
 2465         n3     86    bbb     N1   2465 -0.59685800  14.010000   ; qtot -0.596942
 2466         c3     86    bbb     C1   2466 0.10137000  12.010000   ; qtot -0.495572
 2467         h1     86    bbb     H1   2467 0.04411300   1.008000   ; qtot -0.451459
 2468         h1     86    bbb     H2   2468 0.04411300   1.008000   ; qtot -0.407346
 2469         c3     86    bbb     C2   2469 0.10137000  12.010000   ; qtot -0.305976
 2470         h1     86    bbb     H3   2470 0.04411300   1.008000   ; qtot -0.261863
 2471         h1     86    bbb     H4   2471 0.04411300   1.008000   ; qtot -0.217750
 2472         c3     86    bbb     C3   2472 -0.00195300  12.010000   ; qtot -0.219703
 2473         h1     86    bbb     H5   2473 0.05064400   1.008000   ; qtot -0.169059
 2474         h1     86    bbb     H6   2474 0.05064400   1.008000   ; qtot -0.118415
 2475         c3     86    bbb     C4   2475 -0.01612100  12.010000   ; qtot -0.134536
 2476         hc     86    bbb     H7   2476 0.04936100   1.008000   ; qtot -0.085175
 2477         hc     86    bbb     H8   2477 0.04936100   1.008000   ; qtot -0.035814
 2478         c3     86    bbb     C5   2478 0.11363000  12.010000   ; qtot 0.077816
 2479         hc     86    bbb     H9   2479 0.06265900   1.008000   ; qtot 0.140475
 2480         hc     86    bbb    H10   2480 0.06265900   1.008000   ; qtot 0.203134
 2481         c3     86    bbb     C6   2481 0.11363000  12.010000   ; qtot 0.316764
 2482         hc     86    bbb    H11   2482 0.06265900   1.008000   ; qtot 0.379423
 2483         hc     86    bbb    H12   2483 0.06265900   1.008000   ; qtot 0.442082
 2484         c3     86    bbb     C7   2484 0.05858200  12.010000   ; qtot 0.500664
 2485         h1     86    bbb    H13   2485 0.06123400   1.008000   ; qtot 0.561898
 2486         h1     86    bbb    H14   2486 0.06123400   1.008000   ; qtot 0.623132
 2487         c3     86    bbb     C8   2487 -0.72423400  12.010000   ; qtot -0.101102
 2488         h1     86    bbb    H15   2488 0.25637600   1.008000   ; qtot 0.155274
 2489         h1     86    bbb    H16   2489 0.25637600   1.008000   ; qtot 0.411650
 2490         c3     86    bbb     C9   2490 -0.72423400  12.010000   ; qtot -0.312584
 2491         h1     86    bbb    H17   2491 0.25637600   1.008000   ; qtot -0.056208
 2492         h1     86    bbb    H18   2492 0.25637600   1.008000   ; qtot 0.200168
 2493         os     86    bbb     O1   2493 -0.20025300  16.000000   ; qtot -0.000085
; residue   87 bbb rtp bbb q -0.0
 2494         n3     87    bbb     N1   2494 -0.59685800  14.010000   ; qtot -0.596943
 2495         c3     87    bbb     C1   2495 0.10137000  12.010000   ; qtot -0.495573
 2496         h1     87    bbb     H1   2496 0.04411300   1.008000   ; qtot -0.451460
 2497         h1     87    bbb     H2   2497 0.04411300   1.008000   ; qtot -0.407347
 2498         c3     87    bbb     C2   2498 0.10137000  12.010000   ; qtot -0.305977
 2499         h1     87    bbb     H3   2499 0.04411300   1.008000   ; qtot -0.261864
 2500         h1     87    bbb     H4   2500 0.04411300   1.008000   ; qtot -0.217751
 2501         c3     87    bbb     C3   2501 -0.00195300  12.010000   ; qtot -0.219704
 2502         h1     87    bbb     H5   2502 0.05064400   1.008000   ; qtot -0.169060
 2503         h1     87    bbb     H6   2503 0.05064400   1.008000   ; qtot -0.118416
 2504         c3     87    bbb     C4   2504 -0.01612100  12.010000   ; qtot -0.134537
 2505         hc     87    bbb     H7   2505 0.04936100   1.008000   ; qtot -0.085176
 2506         hc     87    bbb     H8   2506 0.04936100   1.008000   ; qtot -0.035815
 2507         c3     87    bbb     C5   2507 0.11363000  12.010000   ; qtot 0.077815
 2508         hc     87    bbb     H9   2508 0.06265900   1.008000   ; qtot 0.140474
 2509         hc     87    bbb    H10   2509 0.06265900   1.008000   ; qtot 0.203133
 2510         c3     87    bbb     C6   2510 0.11363000  12.010000   ; qtot 0.316763
 2511         hc     87    bbb    H11   2511 0.06265900   1.008000   ; qtot 0.379422
 2512         hc     87    bbb    H12   2512 0.06265900   1.008000   ; qtot 0.442081
 2513         c3     87    bbb     C7   2513 0.05858200  12.010000   ; qtot 0.500663
 2514         h1     87    bbb    H13   2514 0.06123400   1.008000   ; qtot 0.561897
 2515         h1     87    bbb    H14   2515 0.06123400   1.008000   ; qtot 0.623131
 2516         c3     87    bbb     C8   2516 -0.72423400  12.010000   ; qtot -0.101103
 2517         h1     87    bbb    H15   2517 0.25637600   1.008000   ; qtot 0.155273
 2518         h1     87    bbb    H16   2518 0.25637600   1.008000   ; qtot 0.411649
 2519         c3     87    bbb     C9   2519 -0.72423400  12.010000   ; qtot -0.312585
 2520         h1     87    bbb    H17   2520 0.25637600   1.008000   ; qtot -0.056209
 2521         h1     87    bbb    H18   2521 0.25637600   1.008000   ; qtot 0.200167
 2522         os     87    bbb     O1   2522 -0.20025300  16.000000   ; qtot -0.000086
; residue   88 bbb rtp bbb q -0.0
 2523         n3     88    bbb     N1   2523 -0.59685800  14.010000   ; qtot -0.596944
 2524         c3     88    bbb     C1   2524 0.10137000  12.010000   ; qtot -0.495574
 2525         h1     88    bbb     H1   2525 0.04411300   1.008000   ; qtot -0.451461
 2526         h1     88    bbb     H2   2526 0.04411300   1.008000   ; qtot -0.407348
 2527         c3     88    bbb     C2   2527 0.10137000  12.010000   ; qtot -0.305978
 2528         h1     88    bbb     H3   2528 0.04411300   1.008000   ; qtot -0.261865
 2529         h1     88    bbb     H4   2529 0.04411300   1.008000   ; qtot -0.217752
 2530         c3     88    bbb     C3   2530 -0.00195300  12.010000   ; qtot -0.219705
 2531         h1     88    bbb     H5   2531 0.05064400   1.008000   ; qtot -0.169061
 2532         h1     88    bbb     H6   2532 0.05064400   1.008000   ; qtot -0.118417
 2533         c3     88    bbb     C4   2533 -0.01612100  12.010000   ; qtot -0.134538
 2534         hc     88    bbb     H7   2534 0.04936100   1.008000   ; qtot -0.085177
 2535         hc     88    bbb     H8   2535 0.04936100   1.008000   ; qtot -0.035816
 2536         c3     88    bbb     C5   2536 0.11363000  12.010000   ; qtot 0.077814
 2537         hc     88    bbb     H9   2537 0.06265900   1.008000   ; qtot 0.140473
 2538         hc     88    bbb    H10   2538 0.06265900   1.008000   ; qtot 0.203132
 2539         c3     88    bbb     C6   2539 0.11363000  12.010000   ; qtot 0.316762
 2540         hc     88    bbb    H11   2540 0.06265900   1.008000   ; qtot 0.379421
 2541         hc     88    bbb    H12   2541 0.06265900   1.008000   ; qtot 0.442080
 2542         c3     88    bbb     C7   2542 0.05858200  12.010000   ; qtot 0.500662
 2543         h1     88    bbb    H13   2543 0.06123400   1.008000   ; qtot 0.561896
 2544         h1     88    bbb    H14   2544 0.06123400   1.008000   ; qtot 0.623130
 2545         c3     88    bbb     C8   2545 -0.72423400  12.010000   ; qtot -0.101104
 2546         h1     88    bbb    H15   2546 0.25637600   1.008000   ; qtot 0.155272
 2547         h1     88    bbb    H16   2547 0.25637600   1.008000   ; qtot 0.411648
 2548         c3     88    bbb     C9   2548 -0.72423400  12.010000   ; qtot -0.312586
 2549         h1     88    bbb    H17   2549 0.25637600   1.008000   ; qtot -0.056210
 2550         h1     88    bbb    H18   2550 0.25637600   1.008000   ; qtot 0.200166
 2551         os     88    bbb     O1   2551 -0.20025300  16.000000   ; qtot -0.000087
; residue   89 bbb rtp bbb q -0.0
 2552         n3     89    bbb     N1   2552 -0.59685800  14.010000   ; qtot -0.596945
 2553         c3     89    bbb     C1   2553 0.10137000  12.010000   ; qtot -0.495575
 2554         h1     89    bbb     H1   2554 0.04411300   1.008000   ; qtot -0.451462
 2555         h1     89    bbb     H2   2555 0.04411300   1.008000   ; qtot -0.407349
 2556         c3     89    bbb     C2   2556 0.10137000  12.010000   ; qtot -0.305979
 2557         h1     89    bbb     H3   2557 0.04411300   1.008000   ; qtot -0.261866
 2558         h1     89    bbb     H4   2558 0.04411300   1.008000   ; qtot -0.217753
 2559         c3     89    bbb     C3   2559 -0.00195300  12.010000   ; qtot -0.219706
 2560         h1     89    bbb     H5   2560 0.05064400   1.008000   ; qtot -0.169062
 2561         h1     89    bbb     H6   2561 0.05064400   1.008000   ; qtot -0.118418
 2562         c3     89    bbb     C4   2562 -0.01612100  12.010000   ; qtot -0.134539
 2563         hc     89    bbb     H7   2563 0.04936100   1.008000   ; qtot -0.085178
 2564         hc     89    bbb     H8   2564 0.04936100   1.008000   ; qtot -0.035817
 2565         c3     89    bbb     C5   2565 0.11363000  12.010000   ; qtot 0.077813
 2566         hc     89    bbb     H9   2566 0.06265900   1.008000   ; qtot 0.140472
 2567         hc     89    bbb    H10   2567 0.06265900   1.008000   ; qtot 0.203131
 2568         c3     89    bbb     C6   2568 0.11363000  12.010000   ; qtot 0.316761
 2569         hc     89    bbb    H11   2569 0.06265900   1.008000   ; qtot 0.379420
 2570         hc     89    bbb    H12   2570 0.06265900   1.008000   ; qtot 0.442079
 2571         c3     89    bbb     C7   2571 0.05858200  12.010000   ; qtot 0.500661
 2572         h1     89    bbb    H13   2572 0.06123400   1.008000   ; qtot 0.561895
 2573         h1     89    bbb    H14   2573 0.06123400   1.008000   ; qtot 0.623129
 2574         c3     89    bbb     C8   2574 -0.72423400  12.010000   ; qtot -0.101105
 2575         h1     89    bbb    H15   2575 0.25637600   1.008000   ; qtot 0.155271
 2576         h1     89    bbb    H16   2576 0.25637600   1.008000   ; qtot 0.411647
 2577         c3     89    bbb     C9   2577 -0.72423400  12.010000   ; qtot -0.312587
 2578         h1     89    bbb    H17   2578 0.25637600   1.008000   ; qtot -0.056211
 2579         h1     89    bbb    H18   2579 0.25637600   1.008000   ; qtot 0.200165
 2580         os     89    bbb     O1   2580 -0.20025300  16.000000   ; qtot -0.000088
; residue   90 bbb rtp bbb q -0.0
 2581         n3     90    bbb     N1   2581 -0.59685800  14.010000   ; qtot -0.596946
 2582         c3     90    bbb     C1   2582 0.10137000  12.010000   ; qtot -0.495576
 2583         h1     90    bbb     H1   2583 0.04411300   1.008000   ; qtot -0.451463
 2584         h1     90    bbb     H2   2584 0.04411300   1.008000   ; qtot -0.407350
 2585         c3     90    bbb     C2   2585 0.10137000  12.010000   ; qtot -0.305980
 2586         h1     90    bbb     H3   2586 0.04411300   1.008000   ; qtot -0.261867
 2587         h1     90    bbb     H4   2587 0.04411300   1.008000   ; qtot -0.217754
 2588         c3     90    bbb     C3   2588 -0.00195300  12.010000   ; qtot -0.219707
 2589         h1     90    bbb     H5   2589 0.05064400   1.008000   ; qtot -0.169063
 2590         h1     90    bbb     H6   2590 0.05064400   1.008000   ; qtot -0.118419
 2591         c3     90    bbb     C4   2591 -0.01612100  12.010000   ; qtot -0.134540
 2592         hc     90    bbb     H7   2592 0.04936100   1.008000   ; qtot -0.085179
 2593         hc     90    bbb     H8   2593 0.04936100   1.008000   ; qtot -0.035818
 2594         c3     90    bbb     C5   2594 0.11363000  12.010000   ; qtot 0.077812
 2595         hc     90    bbb     H9   2595 0.06265900   1.008000   ; qtot 0.140471
 2596         hc     90    bbb    H10   2596 0.06265900   1.008000   ; qtot 0.203130
 2597         c3     90    bbb     C6   2597 0.11363000  12.010000   ; qtot 0.316760
 2598         hc     90    bbb    H11   2598 0.06265900   1.008000   ; qtot 0.379419
 2599         hc     90    bbb    H12   2599 0.06265900   1.008000   ; qtot 0.442078
 2600         c3     90    bbb     C7   2600 0.05858200  12.010000   ; qtot 0.500660
 2601         h1     90    bbb    H13   2601 0.06123400   1.008000   ; qtot 0.561894
 2602         h1     90    bbb    H14   2602 0.06123400   1.008000   ; qtot 0.623128
 2603         c3     90    bbb     C8   2603 -0.72423400  12.010000   ; qtot -0.101106
 2604         h1     90    bbb    H15   2604 0.25637600   1.008000   ; qtot 0.155270
 2605         h1     90    bbb    H16   2605 0.25637600   1.008000   ; qtot 0.411646
 2606         c3     90    bbb     C9   2606 -0.72423400  12.010000   ; qtot -0.312588
 2607         h1     90    bbb    H17   2607 0.25637600   1.008000   ; qtot -0.056212
 2608         h1     90    bbb    H18   2608 0.25637600   1.008000   ; qtot 0.200164
 2609         os     90    bbb     O1   2609 -0.20025300  16.000000   ; qtot -0.000089
; residue   91 bbb rtp bbb q -0.0
 2610         n3     91    bbb     N1   2610 -0.59685800  14.010000   ; qtot -0.596947
 2611         c3     91    bbb     C1   2611 0.10137000  12.010000   ; qtot -0.495577
 2612         h1     91    bbb     H1   2612 0.04411300   1.008000   ; qtot -0.451464
 2613         h1     91    bbb     H2   2613 0.04411300   1.008000   ; qtot -0.407351
 2614         c3     91    bbb     C2   2614 0.10137000  12.010000   ; qtot -0.305981
 2615         h1     91    bbb     H3   2615 0.04411300   1.008000   ; qtot -0.261868
 2616         h1     91    bbb     H4   2616 0.04411300   1.008000   ; qtot -0.217755
 2617         c3     91    bbb     C3   2617 -0.00195300  12.010000   ; qtot -0.219708
 2618         h1     91    bbb     H5   2618 0.05064400   1.008000   ; qtot -0.169064
 2619         h1     91    bbb     H6   2619 0.05064400   1.008000   ; qtot -0.118420
 2620         c3     91    bbb     C4   2620 -0.01612100  12.010000   ; qtot -0.134541
 2621         hc     91    bbb     H7   2621 0.04936100   1.008000   ; qtot -0.085180
 2622         hc     91    bbb     H8   2622 0.04936100   1.008000   ; qtot -0.035819
 2623         c3     91    bbb     C5   2623 0.11363000  12.010000   ; qtot 0.077811
 2624         hc     91    bbb     H9   2624 0.06265900   1.008000   ; qtot 0.140470
 2625         hc     91    bbb    H10   2625 0.06265900   1.008000   ; qtot 0.203129
 2626         c3     91    bbb     C6   2626 0.11363000  12.010000   ; qtot 0.316759
 2627         hc     91    bbb    H11   2627 0.06265900   1.008000   ; qtot 0.379418
 2628         hc     91    bbb    H12   2628 0.06265900   1.008000   ; qtot 0.442077
 2629         c3     91    bbb     C7   2629 0.05858200  12.010000   ; qtot 0.500659
 2630         h1     91    bbb    H13   2630 0.06123400   1.008000   ; qtot 0.561893
 2631         h1     91    bbb    H14   2631 0.06123400   1.008000   ; qtot 0.623127
 2632         c3     91    bbb     C8   2632 -0.72423400  12.010000   ; qtot -0.101107
 2633         h1     91    bbb    H15   2633 0.25637600   1.008000   ; qtot 0.155269
 2634         h1     91    bbb    H16   2634 0.25637600   1.008000   ; qtot 0.411645
 2635         c3     91    bbb     C9   2635 -0.72423400  12.010000   ; qtot -0.312589
 2636         h1     91    bbb    H17   2636 0.25637600   1.008000   ; qtot -0.056213
 2637         h1     91    bbb    H18   2637 0.25637600   1.008000   ; qtot 0.200163
 2638         os     91    bbb     O1   2638 -0.20025300  16.000000   ; qtot -0.000090
; residue   92 bbb rtp bbb q -0.0
 2639         n3     92    bbb     N1   2639 -0.59685800  14.010000   ; qtot -0.596948
 2640         c3     92    bbb     C1   2640 0.10137000  12.010000   ; qtot -0.495578
 2641         h1     92    bbb     H1   2641 0.04411300   1.008000   ; qtot -0.451465
 2642         h1     92    bbb     H2   2642 0.04411300   1.008000   ; qtot -0.407352
 2643         c3     92    bbb     C2   2643 0.10137000  12.010000   ; qtot -0.305982
 2644         h1     92    bbb     H3   2644 0.04411300   1.008000   ; qtot -0.261869
 2645         h1     92    bbb     H4   2645 0.04411300   1.008000   ; qtot -0.217756
 2646         c3     92    bbb     C3   2646 -0.00195300  12.010000   ; qtot -0.219709
 2647         h1     92    bbb     H5   2647 0.05064400   1.008000   ; qtot -0.169065
 2648         h1     92    bbb     H6   2648 0.05064400   1.008000   ; qtot -0.118421
 2649         c3     92    bbb     C4   2649 -0.01612100  12.010000   ; qtot -0.134542
 2650         hc     92    bbb     H7   2650 0.04936100   1.008000   ; qtot -0.085181
 2651         hc     92    bbb     H8   2651 0.04936100   1.008000   ; qtot -0.035820
 2652         c3     92    bbb     C5   2652 0.11363000  12.010000   ; qtot 0.077810
 2653         hc     92    bbb     H9   2653 0.06265900   1.008000   ; qtot 0.140469
 2654         hc     92    bbb    H10   2654 0.06265900   1.008000   ; qtot 0.203128
 2655         c3     92    bbb     C6   2655 0.11363000  12.010000   ; qtot 0.316758
 2656         hc     92    bbb    H11   2656 0.06265900   1.008000   ; qtot 0.379417
 2657         hc     92    bbb    H12   2657 0.06265900   1.008000   ; qtot 0.442076
 2658         c3     92    bbb     C7   2658 0.05858200  12.010000   ; qtot 0.500658
 2659         h1     92    bbb    H13   2659 0.06123400   1.008000   ; qtot 0.561892
 2660         h1     92    bbb    H14   2660 0.06123400   1.008000   ; qtot 0.623126
 2661         c3     92    bbb     C8   2661 -0.72423400  12.010000   ; qtot -0.101108
 2662         h1     92    bbb    H15   2662 0.25637600   1.008000   ; qtot 0.155268
 2663         h1     92    bbb    H16   2663 0.25637600   1.008000   ; qtot 0.411644
 2664         c3     92    bbb     C9   2664 -0.72423400  12.010000   ; qtot -0.312590
 2665         h1     92    bbb    H17   2665 0.25637600   1.008000   ; qtot -0.056214
 2666         h1     92    bbb    H18   2666 0.25637600   1.008000   ; qtot 0.200162
 2667         os     92    bbb     O1   2667 -0.20025300  16.000000   ; qtot -0.000091
; residue   93 bbb rtp bbb q -0.0
 2668         n3     93    bbb     N1   2668 -0.59685800  14.010000   ; qtot -0.596949
 2669         c3     93    bbb     C1   2669 0.10137000  12.010000   ; qtot -0.495579
 2670         h1     93    bbb     H1   2670 0.04411300   1.008000   ; qtot -0.451466
 2671         h1     93    bbb     H2   2671 0.04411300   1.008000   ; qtot -0.407353
 2672         c3     93    bbb     C2   2672 0.10137000  12.010000   ; qtot -0.305983
 2673         h1     93    bbb     H3   2673 0.04411300   1.008000   ; qtot -0.261870
 2674         h1     93    bbb     H4   2674 0.04411300   1.008000   ; qtot -0.217757
 2675         c3     93    bbb     C3   2675 -0.00195300  12.010000   ; qtot -0.219710
 2676         h1     93    bbb     H5   2676 0.05064400   1.008000   ; qtot -0.169066
 2677         h1     93    bbb     H6   2677 0.05064400   1.008000   ; qtot -0.118422
 2678         c3     93    bbb     C4   2678 -0.01612100  12.010000   ; qtot -0.134543
 2679         hc     93    bbb     H7   2679 0.04936100   1.008000   ; qtot -0.085182
 2680         hc     93    bbb     H8   2680 0.04936100   1.008000   ; qtot -0.035821
 2681         c3     93    bbb     C5   2681 0.11363000  12.010000   ; qtot 0.077809
 2682         hc     93    bbb     H9   2682 0.06265900   1.008000   ; qtot 0.140468
 2683         hc     93    bbb    H10   2683 0.06265900   1.008000   ; qtot 0.203127
 2684         c3     93    bbb     C6   2684 0.11363000  12.010000   ; qtot 0.316757
 2685         hc     93    bbb    H11   2685 0.06265900   1.008000   ; qtot 0.379416
 2686         hc     93    bbb    H12   2686 0.06265900   1.008000   ; qtot 0.442075
 2687         c3     93    bbb     C7   2687 0.05858200  12.010000   ; qtot 0.500657
 2688         h1     93    bbb    H13   2688 0.06123400   1.008000   ; qtot 0.561891
 2689         h1     93    bbb    H14   2689 0.06123400   1.008000   ; qtot 0.623125
 2690         c3     93    bbb     C8   2690 -0.72423400  12.010000   ; qtot -0.101109
 2691         h1     93    bbb    H15   2691 0.25637600   1.008000   ; qtot 0.155267
 2692         h1     93    bbb    H16   2692 0.25637600   1.008000   ; qtot 0.411643
 2693         c3     93    bbb     C9   2693 -0.72423400  12.010000   ; qtot -0.312591
 2694         h1     93    bbb    H17   2694 0.25637600   1.008000   ; qtot -0.056215
 2695         h1     93    bbb    H18   2695 0.25637600   1.008000   ; qtot 0.200161
 2696         os     93    bbb     O1   2696 -0.20025300  16.000000   ; qtot -0.000092
; residue   94 bbb rtp bbb q -0.0
 2697         n3     94    bbb     N1   2697 -0.59685800  14.010000   ; qtot -0.596950
 2698         c3     94    bbb     C1   2698 0.10137000  12.010000   ; qtot -0.495580
 2699         h1     94    bbb     H1   2699 0.04411300   1.008000   ; qtot -0.451467
 2700         h1     94    bbb     H2   2700 0.04411300   1.008000   ; qtot -0.407354
 2701         c3     94    bbb     C2   2701 0.10137000  12.010000   ; qtot -0.305984
 2702         h1     94    bbb     H3   2702 0.04411300   1.008000   ; qtot -0.261871
 2703         h1     94    bbb     H4   2703 0.04411300   1.008000   ; qtot -0.217758
 2704         c3     94    bbb     C3   2704 -0.00195300  12.010000   ; qtot -0.219711
 2705         h1     94    bbb     H5   2705 0.05064400   1.008000   ; qtot -0.169067
 2706         h1     94    bbb     H6   2706 0.05064400   1.008000   ; qtot -0.118423
 2707         c3     94    bbb     C4   2707 -0.01612100  12.010000   ; qtot -0.134544
 2708         hc     94    bbb     H7   2708 0.04936100   1.008000   ; qtot -0.085183
 2709         hc     94    bbb     H8   2709 0.04936100   1.008000   ; qtot -0.035822
 2710         c3     94    bbb     C5   2710 0.11363000  12.010000   ; qtot 0.077808
 2711         hc     94    bbb     H9   2711 0.06265900   1.008000   ; qtot 0.140467
 2712         hc     94    bbb    H10   2712 0.06265900   1.008000   ; qtot 0.203126
 2713         c3     94    bbb     C6   2713 0.11363000  12.010000   ; qtot 0.316756
 2714         hc     94    bbb    H11   2714 0.06265900   1.008000   ; qtot 0.379415
 2715         hc     94    bbb    H12   2715 0.06265900   1.008000   ; qtot 0.442074
 2716         c3     94    bbb     C7   2716 0.05858200  12.010000   ; qtot 0.500656
 2717         h1     94    bbb    H13   2717 0.06123400   1.008000   ; qtot 0.561890
 2718         h1     94    bbb    H14   2718 0.06123400   1.008000   ; qtot 0.623124
 2719         c3     94    bbb     C8   2719 -0.72423400  12.010000   ; qtot -0.101110
 2720         h1     94    bbb    H15   2720 0.25637600   1.008000   ; qtot 0.155266
 2721         h1     94    bbb    H16   2721 0.25637600   1.008000   ; qtot 0.411642
 2722         c3     94    bbb     C9   2722 -0.72423400  12.010000   ; qtot -0.312592
 2723         h1     94    bbb    H17   2723 0.25637600   1.008000   ; qtot -0.056216
 2724         h1     94    bbb    H18   2724 0.25637600   1.008000   ; qtot 0.200160
 2725         os     94    bbb     O1   2725 -0.20025300  16.000000   ; qtot -0.000093
; residue   95 ccc rtp ccc q 0.0
 2726         c3     95    ccc     C1   2726 0.50749700  12.010000   ; qtot 0.507404
 2727         h1     95    ccc     H1   2727 -0.02808400   1.008000   ; qtot 0.479320
 2728         h1     95    ccc     H2   2728 -0.02808400   1.008000   ; qtot 0.451236
 2729         c3     95    ccc     C2   2729 -0.15486000  12.010000   ; qtot 0.296376
 2730         hc     95    ccc     H3   2730 0.10266400   1.008000   ; qtot 0.399040
 2731         hc     95    ccc     H4   2731 0.10266400   1.008000   ; qtot 0.501704
 2732         c3     95    ccc     C3   2732 -0.15693500  12.010000   ; qtot 0.344769
 2733         h1     95    ccc     H5   2733 0.08499200   1.008000   ; qtot 0.429761
 2734         h1     95    ccc     H6   2734 0.08499200   1.008000   ; qtot 0.514753
 2735         n3     95    ccc     N1   2735 -0.29948700  14.010000   ; qtot 0.215266
 2736         c3     95    ccc     C4   2736 -0.01321200  12.010000   ; qtot 0.202054
 2737         h1     95    ccc     H7   2737 0.08172200   1.008000   ; qtot 0.283776
 2738         h1     95    ccc     H8   2738 0.08172200   1.008000   ; qtot 0.365498
 2739         c3     95    ccc     C5   2739 -0.22180000  12.010000   ; qtot 0.143698
 2740         hc     95    ccc     H9   2740 0.09671800   1.008000   ; qtot 0.240416
 2741         hc     95    ccc    H10   2741 0.09671800   1.008000   ; qtot 0.337134
 2742          c     95    ccc     C6   2742 0.526324  12.010000   ; qtot 1.333661
 2743          o     95    ccc     O1   2743 -0.39142825  16.000000   ; qtot 0.637155
 2744         oh     95    ccc     O2   2744 -0.56822625  16.000000   ; qtot -0.203656
 2745         ho     95    ccc    H11   2745 0.4186155   1.008000   ; qtot 0.322419
 2746         c3     95    ccc     C7   2746 -0.01321200  12.010000   ; qtot 0.309207
 2747         h1     95    ccc    H12   2747 0.08172200   1.008000   ; qtot 0.390929
 2748         h1     95    ccc    H13   2748 0.08172200   1.008000   ; qtot 0.472651
 2749         c3     95    ccc     C8   2749 -0.22180000  12.010000   ; qtot 0.250851
 2750         hc     95    ccc    H14   2750 0.09671800   1.008000   ; qtot 0.347569
 2751         hc     95    ccc    H15   2751 0.09671800   1.008000   ; qtot 0.444287
 2752          c     95    ccc     C9   2752 0.526324  12.010000   ; qtot 1.440814
 2753          o     95    ccc     O3   2753 -0.39142825  16.000000   ; qtot 0.744308
 2754         oh     95    ccc     O4   2754 -0.56822625  16.000000   ; qtot -0.096503
 2755         ho     95    ccc    H16   2755 0.4186155   1.008000   ; qtot 0.429572
 2756         os     95    ccc     O5   2756 -0.42966500  16.000000   ; qtot -0.000093
; residue   96 ccc rtp ccc q 0.0
 2757         c3     96    ccc     C1   2757 0.50749700  12.010000   ; qtot 0.507404
 2758         h1     96    ccc     H1   2758 -0.02808400   1.008000   ; qtot 0.479320
 2759         h1     96    ccc     H2   2759 -0.02808400   1.008000   ; qtot 0.451236
 2760         c3     96    ccc     C2   2760 -0.15486000  12.010000   ; qtot 0.296376
 2761         hc     96    ccc     H3   2761 0.10266400   1.008000   ; qtot 0.399040
 2762         hc     96    ccc     H4   2762 0.10266400   1.008000   ; qtot 0.501704
 2763         c3     96    ccc     C3   2763 -0.15693500  12.010000   ; qtot 0.344769
 2764         h1     96    ccc     H5   2764 0.08499200   1.008000   ; qtot 0.429761
 2765         h1     96    ccc     H6   2765 0.08499200   1.008000   ; qtot 0.514753
 2766         n3     96    ccc     N1   2766 -0.29948700  14.010000   ; qtot 0.215266
 2767         c3     96    ccc     C4   2767 -0.01321200  12.010000   ; qtot 0.202054
 2768         h1     96    ccc     H7   2768 0.08172200   1.008000   ; qtot 0.283776
 2769         h1     96    ccc     H8   2769 0.08172200   1.008000   ; qtot 0.365498
 2770         c3     96    ccc     C5   2770 -0.22180000  12.010000   ; qtot 0.143698
 2771         hc     96    ccc     H9   2771 0.09671800   1.008000   ; qtot 0.240416
 2772         hc     96    ccc    H10   2772 0.09671800   1.008000   ; qtot 0.337134
 2773          c     96    ccc     C6   2773 0.526324  12.010000   ; qtot 1.333661
 2774          o     96    ccc     O1   2774 -0.39142825  16.000000   ; qtot 0.637155
 2775         oh     96    ccc     O2   2775 -0.56822625  16.000000   ; qtot -0.203656
 2776         ho     96    ccc    H11   2776 0.4186155   1.008000   ; qtot 0.322419
 2777         c3     96    ccc     C7   2777 -0.01321200  12.010000   ; qtot 0.309207
 2778         h1     96    ccc    H12   2778 0.08172200   1.008000   ; qtot 0.390929
 2779         h1     96    ccc    H13   2779 0.08172200   1.008000   ; qtot 0.472651
 2780         c3     96    ccc     C8   2780 -0.22180000  12.010000   ; qtot 0.250851
 2781         hc     96    ccc    H14   2781 0.09671800   1.008000   ; qtot 0.347569
 2782         hc     96    ccc    H15   2782 0.09671800   1.008000   ; qtot 0.444287
 2783          c     96    ccc     C9   2783 0.526324  12.010000   ; qtot 1.440814
 2784          o     96    ccc     O3   2784 -0.39142825  16.000000   ; qtot 0.744308
 2785         oh     96    ccc     O4   2785 -0.56822625  16.000000   ; qtot -0.096503
 2786         ho     96    ccc    H16   2786 0.4186155   1.008000   ; qtot 0.429572
 2787         os     96    ccc     O5   2787 -0.42966500  16.000000   ; qtot -0.000093
; residue   97 ccc rtp ccc q 0.0
 2788         c3     97    ccc     C1   2788 0.50749700  12.010000   ; qtot 0.507404
 2789         h1     97    ccc     H1   2789 -0.02808400   1.008000   ; qtot 0.479320
 2790         h1     97    ccc     H2   2790 -0.02808400   1.008000   ; qtot 0.451236
 2791         c3     97    ccc     C2   2791 -0.15486000  12.010000   ; qtot 0.296376
 2792         hc     97    ccc     H3   2792 0.10266400   1.008000   ; qtot 0.399040
 2793         hc     97    ccc     H4   2793 0.10266400   1.008000   ; qtot 0.501704
 2794         c3     97    ccc     C3   2794 -0.15693500  12.010000   ; qtot 0.344769
 2795         h1     97    ccc     H5   2795 0.08499200   1.008000   ; qtot 0.429761
 2796         h1     97    ccc     H6   2796 0.08499200   1.008000   ; qtot 0.514753
 2797         n3     97    ccc     N1   2797 -0.29948700  14.010000   ; qtot 0.215266
 2798         c3     97    ccc     C4   2798 -0.01321200  12.010000   ; qtot 0.202054
 2799         h1     97    ccc     H7   2799 0.08172200   1.008000   ; qtot 0.283776
 2800         h1     97    ccc     H8   2800 0.08172200   1.008000   ; qtot 0.365498
 2801         c3     97    ccc     C5   2801 -0.22180000  12.010000   ; qtot 0.143698
 2802         hc     97    ccc     H9   2802 0.09671800   1.008000   ; qtot 0.240416
 2803         hc     97    ccc    H10   2803 0.09671800   1.008000   ; qtot 0.337134
 2804          c     97    ccc     C6   2804 0.526324  12.010000   ; qtot 1.333661
 2805          o     97    ccc     O1   2805 -0.39142825  16.000000   ; qtot 0.637155
 2806         oh     97    ccc     O2   2806 -0.56822625  16.000000   ; qtot -0.203656
 2807         ho     97    ccc    H11   2807 0.4186155   1.008000   ; qtot 0.322419
 2808         c3     97    ccc     C7   2808 -0.01321200  12.010000   ; qtot 0.309207
 2809         h1     97    ccc    H12   2809 0.08172200   1.008000   ; qtot 0.390929
 2810         h1     97    ccc    H13   2810 0.08172200   1.008000   ; qtot 0.472651
 2811         c3     97    ccc     C8   2811 -0.22180000  12.010000   ; qtot 0.250851
 2812         hc     97    ccc    H14   2812 0.09671800   1.008000   ; qtot 0.347569
 2813         hc     97    ccc    H15   2813 0.09671800   1.008000   ; qtot 0.444287
 2814          c     97    ccc     C9   2814 0.526324  12.010000   ; qtot 1.440814
 2815          o     97    ccc     O3   2815 -0.39142825  16.000000   ; qtot 0.744308
 2816         oh     97    ccc     O4   2816 -0.56822625  16.000000   ; qtot -0.096503
 2817         ho     97    ccc    H16   2817 0.4186155   1.008000   ; qtot 0.429572
 2818         os     97    ccc     O5   2818 -0.42966500  16.000000   ; qtot -0.000093
; residue   98 ccc rtp ccc q 0.0
 2819         c3     98    ccc     C1   2819 0.50749700  12.010000   ; qtot 0.507404
 2820         h1     98    ccc     H1   2820 -0.02808400   1.008000   ; qtot 0.479320
 2821         h1     98    ccc     H2   2821 -0.02808400   1.008000   ; qtot 0.451236
 2822         c3     98    ccc     C2   2822 -0.15486000  12.010000   ; qtot 0.296376
 2823         hc     98    ccc     H3   2823 0.10266400   1.008000   ; qtot 0.399040
 2824         hc     98    ccc     H4   2824 0.10266400   1.008000   ; qtot 0.501704
 2825         c3     98    ccc     C3   2825 -0.15693500  12.010000   ; qtot 0.344769
 2826         h1     98    ccc     H5   2826 0.08499200   1.008000   ; qtot 0.429761
 2827         h1     98    ccc     H6   2827 0.08499200   1.008000   ; qtot 0.514753
 2828         n3     98    ccc     N1   2828 -0.29948700  14.010000   ; qtot 0.215266
 2829         c3     98    ccc     C4   2829 -0.01321200  12.010000   ; qtot 0.202054
 2830         h1     98    ccc     H7   2830 0.08172200   1.008000   ; qtot 0.283776
 2831         h1     98    ccc     H8   2831 0.08172200   1.008000   ; qtot 0.365498
 2832         c3     98    ccc     C5   2832 -0.22180000  12.010000   ; qtot 0.143698
 2833         hc     98    ccc     H9   2833 0.09671800   1.008000   ; qtot 0.240416
 2834         hc     98    ccc    H10   2834 0.09671800   1.008000   ; qtot 0.337134
 2835          c     98    ccc     C6   2835 0.526324  12.010000   ; qtot 1.333661
 2836          o     98    ccc     O1   2836 -0.39142825  16.000000   ; qtot 0.637155
 2837         oh     98    ccc     O2   2837 -0.56822625  16.000000   ; qtot -0.203656
 2838         ho     98    ccc    H11   2838 0.4186155   1.008000   ; qtot 0.322419
 2839         c3     98    ccc     C7   2839 -0.01321200  12.010000   ; qtot 0.309207
 2840         h1     98    ccc    H12   2840 0.08172200   1.008000   ; qtot 0.390929
 2841         h1     98    ccc    H13   2841 0.08172200   1.008000   ; qtot 0.472651
 2842         c3     98    ccc     C8   2842 -0.22180000  12.010000   ; qtot 0.250851
 2843         hc     98    ccc    H14   2843 0.09671800   1.008000   ; qtot 0.347569
 2844         hc     98    ccc    H15   2844 0.09671800   1.008000   ; qtot 0.444287
 2845          c     98    ccc     C9   2845 0.526324  12.010000   ; qtot 1.440814
 2846          o     98    ccc     O3   2846 -0.39142825  16.000000   ; qtot 0.744308
 2847         oh     98    ccc     O4   2847 -0.56822625  16.000000   ; qtot -0.096503
 2848         ho     98    ccc    H16   2848 0.4186155   1.008000   ; qtot 0.429572
 2849         os     98    ccc     O5   2849 -0.42966500  16.000000   ; qtot -0.000093
; residue   99 ccc rtp ccc q 0.0
 2850         c3     99    ccc     C1   2850 0.50749700  12.010000   ; qtot 0.507404
 2851         h1     99    ccc     H1   2851 -0.02808400   1.008000   ; qtot 0.479320
 2852         h1     99    ccc     H2   2852 -0.02808400   1.008000   ; qtot 0.451236
 2853         c3     99    ccc     C2   2853 -0.15486000  12.010000   ; qtot 0.296376
 2854         hc     99    ccc     H3   2854 0.10266400   1.008000   ; qtot 0.399040
 2855         hc     99    ccc     H4   2855 0.10266400   1.008000   ; qtot 0.501704
 2856         c3     99    ccc     C3   2856 -0.15693500  12.010000   ; qtot 0.344769
 2857         h1     99    ccc     H5   2857 0.08499200   1.008000   ; qtot 0.429761
 2858         h1     99    ccc     H6   2858 0.08499200   1.008000   ; qtot 0.514753
 2859         n3     99    ccc     N1   2859 -0.29948700  14.010000   ; qtot 0.215266
 2860         c3     99    ccc     C4   2860 -0.01321200  12.010000   ; qtot 0.202054
 2861         h1     99    ccc     H7   2861 0.08172200   1.008000   ; qtot 0.283776
 2862         h1     99    ccc     H8   2862 0.08172200   1.008000   ; qtot 0.365498
 2863         c3     99    ccc     C5   2863 -0.22180000  12.010000   ; qtot 0.143698
 2864         hc     99    ccc     H9   2864 0.09671800   1.008000   ; qtot 0.240416
 2865         hc     99    ccc    H10   2865 0.09671800   1.008000   ; qtot 0.337134
 2866          c     99    ccc     C6   2866 0.526324  12.010000   ; qtot 1.333661
 2867          o     99    ccc     O1   2867 -0.39142825  16.000000   ; qtot 0.637155
 2868         oh     99    ccc     O2   2868 -0.56822625  16.000000   ; qtot -0.203656
 2869         ho     99    ccc    H11   2869 0.4186155   1.008000   ; qtot 0.322419
 2870         c3     99    ccc     C7   2870 -0.01321200  12.010000   ; qtot 0.309207
 2871         h1     99    ccc    H12   2871 0.08172200   1.008000   ; qtot 0.390929
 2872         h1     99    ccc    H13   2872 0.08172200   1.008000   ; qtot 0.472651
 2873         c3     99    ccc     C8   2873 -0.22180000  12.010000   ; qtot 0.250851
 2874         hc     99    ccc    H14   2874 0.09671800   1.008000   ; qtot 0.347569
 2875         hc     99    ccc    H15   2875 0.09671800   1.008000   ; qtot 0.444287
 2876          c     99    ccc     C9   2876 0.526324  12.010000   ; qtot 1.440814
 2877          o     99    ccc     O3   2877 -0.39142825  16.000000   ; qtot 0.744308
 2878         oh     99    ccc     O4   2878 -0.56822625  16.000000   ; qtot -0.096503
 2879         ho     99    ccc    H16   2879 0.4186155   1.008000   ; qtot 0.429572
 2880         os     99    ccc     O5   2880 -0.42966500  16.000000   ; qtot -0.000093
; residue  100 ccc rtp ccc q 0.0
 2881         c3    100    ccc     C1   2881 0.50749700  12.010000   ; qtot 0.507404
 2882         h1    100    ccc     H1   2882 -0.02808400   1.008000   ; qtot 0.479320
 2883         h1    100    ccc     H2   2883 -0.02808400   1.008000   ; qtot 0.451236
 2884         c3    100    ccc     C2   2884 -0.15486000  12.010000   ; qtot 0.296376
 2885         hc    100    ccc     H3   2885 0.10266400   1.008000   ; qtot 0.399040
 2886         hc    100    ccc     H4   2886 0.10266400   1.008000   ; qtot 0.501704
 2887         c3    100    ccc     C3   2887 -0.15693500  12.010000   ; qtot 0.344769
 2888         h1    100    ccc     H5   2888 0.08499200   1.008000   ; qtot 0.429761
 2889         h1    100    ccc     H6   2889 0.08499200   1.008000   ; qtot 0.514753
 2890         n3    100    ccc     N1   2890 -0.29948700  14.010000   ; qtot 0.215266
 2891         c3    100    ccc     C4   2891 -0.01321200  12.010000   ; qtot 0.202054
 2892         h1    100    ccc     H7   2892 0.08172200   1.008000   ; qtot 0.283776
 2893         h1    100    ccc     H8   2893 0.08172200   1.008000   ; qtot 0.365498
 2894         c3    100    ccc     C5   2894 -0.22180000  12.010000   ; qtot 0.143698
 2895         hc    100    ccc     H9   2895 0.09671800   1.008000   ; qtot 0.240416
 2896         hc    100    ccc    H10   2896 0.09671800   1.008000   ; qtot 0.337134
 2897          c    100    ccc     C6   2897 0.526324  12.010000   ; qtot 1.333661
 2898          o    100    ccc     O1   2898 -0.39142825  16.000000   ; qtot 0.637155
 2899         oh    100    ccc     O2   2899 -0.56822625  16.000000   ; qtot -0.203656
 2900         ho    100    ccc    H11   2900 0.4186155   1.008000   ; qtot 0.322419
 2901         c3    100    ccc     C7   2901 -0.01321200  12.010000   ; qtot 0.309207
 2902         h1    100    ccc    H12   2902 0.08172200   1.008000   ; qtot 0.390929
 2903         h1    100    ccc    H13   2903 0.08172200   1.008000   ; qtot 0.472651
 2904         c3    100    ccc     C8   2904 -0.22180000  12.010000   ; qtot 0.250851
 2905         hc    100    ccc    H14   2905 0.09671800   1.008000   ; qtot 0.347569
 2906         hc    100    ccc    H15   2906 0.09671800   1.008000   ; qtot 0.444287
 2907          c    100    ccc     C9   2907 0.526324  12.010000   ; qtot 1.440814
 2908          o    100    ccc     O3   2908 -0.39142825  16.000000   ; qtot 0.744308
 2909         oh    100    ccc     O4   2909 -0.56822625  16.000000   ; qtot -0.096503
 2910         ho    100    ccc    H16   2910 0.4186155   1.008000   ; qtot 0.429572
 2911         os    100    ccc     O5   2911 -0.42966500  16.000000   ; qtot -0.000093
; residue  101 ccc rtp ccc q 0.0
 2912         c3    101    ccc     C1   2912 0.50749700  12.010000   ; qtot 0.507404
 2913         h1    101    ccc     H1   2913 -0.02808400   1.008000   ; qtot 0.479320
 2914         h1    101    ccc     H2   2914 -0.02808400   1.008000   ; qtot 0.451236
 2915         c3    101    ccc     C2   2915 -0.15486000  12.010000   ; qtot 0.296376
 2916         hc    101    ccc     H3   2916 0.10266400   1.008000   ; qtot 0.399040
 2917         hc    101    ccc     H4   2917 0.10266400   1.008000   ; qtot 0.501704
 2918         c3    101    ccc     C3   2918 -0.15693500  12.010000   ; qtot 0.344769
 2919         h1    101    ccc     H5   2919 0.08499200   1.008000   ; qtot 0.429761
 2920         h1    101    ccc     H6   2920 0.08499200   1.008000   ; qtot 0.514753
 2921         n3    101    ccc     N1   2921 -0.29948700  14.010000   ; qtot 0.215266
 2922         c3    101    ccc     C4   2922 -0.01321200  12.010000   ; qtot 0.202054
 2923         h1    101    ccc     H7   2923 0.08172200   1.008000   ; qtot 0.283776
 2924         h1    101    ccc     H8   2924 0.08172200   1.008000   ; qtot 0.365498
 2925         c3    101    ccc     C5   2925 -0.22180000  12.010000   ; qtot 0.143698
 2926         hc    101    ccc     H9   2926 0.09671800   1.008000   ; qtot 0.240416
 2927         hc    101    ccc    H10   2927 0.09671800   1.008000   ; qtot 0.337134
 2928          c    101    ccc     C6   2928 0.526324  12.010000   ; qtot 1.333661
 2929          o    101    ccc     O1   2929 -0.39142825  16.000000   ; qtot 0.637155
 2930         oh    101    ccc     O2   2930 -0.56822625  16.000000   ; qtot -0.203656
 2931         ho    101    ccc    H11   2931 0.4186155   1.008000   ; qtot 0.322419
 2932         c3    101    ccc     C7   2932 -0.01321200  12.010000   ; qtot 0.309207
 2933         h1    101    ccc    H12   2933 0.08172200   1.008000   ; qtot 0.390929
 2934         h1    101    ccc    H13   2934 0.08172200   1.008000   ; qtot 0.472651
 2935         c3    101    ccc     C8   2935 -0.22180000  12.010000   ; qtot 0.250851
 2936         hc    101    ccc    H14   2936 0.09671800   1.008000   ; qtot 0.347569
 2937         hc    101    ccc    H15   2937 0.09671800   1.008000   ; qtot 0.444287
 2938          c    101    ccc     C9   2938 0.526324  12.010000   ; qtot 1.440814
 2939          o    101    ccc     O3   2939 -0.39142825  16.000000   ; qtot 0.744308
 2940         oh    101    ccc     O4   2940 -0.56822625  16.000000   ; qtot -0.096503
 2941         ho    101    ccc    H16   2941 0.4186155   1.008000   ; qtot 0.429572
 2942         os    101    ccc     O5   2942 -0.42966500  16.000000   ; qtot -0.000093
; residue  102 ccc rtp ccc q 0.0
 2943         c3    102    ccc     C1   2943 0.50749700  12.010000   ; qtot 0.507404
 2944         h1    102    ccc     H1   2944 -0.02808400   1.008000   ; qtot 0.479320
 2945         h1    102    ccc     H2   2945 -0.02808400   1.008000   ; qtot 0.451236
 2946         c3    102    ccc     C2   2946 -0.15486000  12.010000   ; qtot 0.296376
 2947         hc    102    ccc     H3   2947 0.10266400   1.008000   ; qtot 0.399040
 2948         hc    102    ccc     H4   2948 0.10266400   1.008000   ; qtot 0.501704
 2949         c3    102    ccc     C3   2949 -0.15693500  12.010000   ; qtot 0.344769
 2950         h1    102    ccc     H5   2950 0.08499200   1.008000   ; qtot 0.429761
 2951         h1    102    ccc     H6   2951 0.08499200   1.008000   ; qtot 0.514753
 2952         n3    102    ccc     N1   2952 -0.29948700  14.010000   ; qtot 0.215266
 2953         c3    102    ccc     C4   2953 -0.01321200  12.010000   ; qtot 0.202054
 2954         h1    102    ccc     H7   2954 0.08172200   1.008000   ; qtot 0.283776
 2955         h1    102    ccc     H8   2955 0.08172200   1.008000   ; qtot 0.365498
 2956         c3    102    ccc     C5   2956 -0.22180000  12.010000   ; qtot 0.143698
 2957         hc    102    ccc     H9   2957 0.09671800   1.008000   ; qtot 0.240416
 2958         hc    102    ccc    H10   2958 0.09671800   1.008000   ; qtot 0.337134
 2959          c    102    ccc     C6   2959 0.526324  12.010000   ; qtot 1.333661
 2960          o    102    ccc     O1   2960 -0.39142825  16.000000   ; qtot 0.637155
 2961         oh    102    ccc     O2   2961 -0.56822625  16.000000   ; qtot -0.203656
 2962         ho    102    ccc    H11   2962 0.4186155   1.008000   ; qtot 0.322419
 2963         c3    102    ccc     C7   2963 -0.01321200  12.010000   ; qtot 0.309207
 2964         h1    102    ccc    H12   2964 0.08172200   1.008000   ; qtot 0.390929
 2965         h1    102    ccc    H13   2965 0.08172200   1.008000   ; qtot 0.472651
 2966         c3    102    ccc     C8   2966 -0.22180000  12.010000   ; qtot 0.250851
 2967         hc    102    ccc    H14   2967 0.09671800   1.008000   ; qtot 0.347569
 2968         hc    102    ccc    H15   2968 0.09671800   1.008000   ; qtot 0.444287
 2969          c    102    ccc     C9   2969 0.526324  12.010000   ; qtot 1.440814
 2970          o    102    ccc     O3   2970 -0.39142825  16.000000   ; qtot 0.744308
 2971         oh    102    ccc     O4   2971 -0.56822625  16.000000   ; qtot -0.096503
 2972         ho    102    ccc    H16   2972 0.4186155   1.008000   ; qtot 0.429572
 2973         os    102    ccc     O5   2973 -0.42966500  16.000000   ; qtot -0.000093
; residue  103 ccc rtp ccc q 0.0
 2974         c3    103    ccc     C1   2974 0.50749700  12.010000   ; qtot 0.507404
 2975         h1    103    ccc     H1   2975 -0.02808400   1.008000   ; qtot 0.479320
 2976         h1    103    ccc     H2   2976 -0.02808400   1.008000   ; qtot 0.451236
 2977         c3    103    ccc     C2   2977 -0.15486000  12.010000   ; qtot 0.296376
 2978         hc    103    ccc     H3   2978 0.10266400   1.008000   ; qtot 0.399040
 2979         hc    103    ccc     H4   2979 0.10266400   1.008000   ; qtot 0.501704
 2980         c3    103    ccc     C3   2980 -0.15693500  12.010000   ; qtot 0.344769
 2981         h1    103    ccc     H5   2981 0.08499200   1.008000   ; qtot 0.429761
 2982         h1    103    ccc     H6   2982 0.08499200   1.008000   ; qtot 0.514753
 2983         n3    103    ccc     N1   2983 -0.29948700  14.010000   ; qtot 0.215266
 2984         c3    103    ccc     C4   2984 -0.01321200  12.010000   ; qtot 0.202054
 2985         h1    103    ccc     H7   2985 0.08172200   1.008000   ; qtot 0.283776
 2986         h1    103    ccc     H8   2986 0.08172200   1.008000   ; qtot 0.365498
 2987         c3    103    ccc     C5   2987 -0.22180000  12.010000   ; qtot 0.143698
 2988         hc    103    ccc     H9   2988 0.09671800   1.008000   ; qtot 0.240416
 2989         hc    103    ccc    H10   2989 0.09671800   1.008000   ; qtot 0.337134
 2990          c    103    ccc     C6   2990 0.526324  12.010000   ; qtot 1.333661
 2991          o    103    ccc     O1   2991 -0.39142825  16.000000   ; qtot 0.637155
 2992         oh    103    ccc     O2   2992 -0.56822625  16.000000   ; qtot -0.203656
 2993         ho    103    ccc    H11   2993 0.4186155   1.008000   ; qtot 0.322419
 2994         c3    103    ccc     C7   2994 -0.01321200  12.010000   ; qtot 0.309207
 2995         h1    103    ccc    H12   2995 0.08172200   1.008000   ; qtot 0.390929
 2996         h1    103    ccc    H13   2996 0.08172200   1.008000   ; qtot 0.472651
 2997         c3    103    ccc     C8   2997 -0.22180000  12.010000   ; qtot 0.250851
 2998         hc    103    ccc    H14   2998 0.09671800   1.008000   ; qtot 0.347569
 2999         hc    103    ccc    H15   2999 0.09671800   1.008000   ; qtot 0.444287
 3000          c    103    ccc     C9   3000 0.526324  12.010000   ; qtot 1.440814
 3001          o    103    ccc     O3   3001 -0.39142825  16.000000   ; qtot 0.744308
 3002         oh    103    ccc     O4   3002 -0.56822625  16.000000   ; qtot -0.096503
 3003         ho    103    ccc    H16   3003 0.4186155   1.008000   ; qtot 0.429572
 3004         os    103    ccc     O5   3004 -0.42966500  16.000000   ; qtot -0.000093
; residue  104 ccc rtp ccc q 0.0
 3005         c3    104    ccc     C1   3005 0.50749700  12.010000   ; qtot 0.507404
 3006         h1    104    ccc     H1   3006 -0.02808400   1.008000   ; qtot 0.479320
 3007         h1    104    ccc     H2   3007 -0.02808400   1.008000   ; qtot 0.451236
 3008         c3    104    ccc     C2   3008 -0.15486000  12.010000   ; qtot 0.296376
 3009         hc    104    ccc     H3   3009 0.10266400   1.008000   ; qtot 0.399040
 3010         hc    104    ccc     H4   3010 0.10266400   1.008000   ; qtot 0.501704
 3011         c3    104    ccc     C3   3011 -0.15693500  12.010000   ; qtot 0.344769
 3012         h1    104    ccc     H5   3012 0.08499200   1.008000   ; qtot 0.429761
 3013         h1    104    ccc     H6   3013 0.08499200   1.008000   ; qtot 0.514753
 3014         n3    104    ccc     N1   3014 -0.29948700  14.010000   ; qtot 0.215266
 3015         c3    104    ccc     C4   3015 -0.01321200  12.010000   ; qtot 0.202054
 3016         h1    104    ccc     H7   3016 0.08172200   1.008000   ; qtot 0.283776
 3017         h1    104    ccc     H8   3017 0.08172200   1.008000   ; qtot 0.365498
 3018         c3    104    ccc     C5   3018 -0.22180000  12.010000   ; qtot 0.143698
 3019         hc    104    ccc     H9   3019 0.09671800   1.008000   ; qtot 0.240416
 3020         hc    104    ccc    H10   3020 0.09671800   1.008000   ; qtot 0.337134
 3021          c    104    ccc     C6   3021 0.526324  12.010000   ; qtot 1.333661
 3022          o    104    ccc     O1   3022 -0.39142825  16.000000   ; qtot 0.637155
 3023         oh    104    ccc     O2   3023 -0.56822625  16.000000   ; qtot -0.203656
 3024         ho    104    ccc    H11   3024 0.4186155   1.008000   ; qtot 0.322419
 3025         c3    104    ccc     C7   3025 -0.01321200  12.010000   ; qtot 0.309207
 3026         h1    104    ccc    H12   3026 0.08172200   1.008000   ; qtot 0.390929
 3027         h1    104    ccc    H13   3027 0.08172200   1.008000   ; qtot 0.472651
 3028         c3    104    ccc     C8   3028 -0.22180000  12.010000   ; qtot 0.250851
 3029         hc    104    ccc    H14   3029 0.09671800   1.008000   ; qtot 0.347569
 3030         hc    104    ccc    H15   3030 0.09671800   1.008000   ; qtot 0.444287
 3031          c    104    ccc     C9   3031 0.526324  12.010000   ; qtot 1.440814
 3032          o    104    ccc     O3   3032 -0.39142825  16.000000   ; qtot 0.744308
 3033         oh    104    ccc     O4   3033 -0.56822625  16.000000   ; qtot -0.096503
 3034         ho    104    ccc    H16   3034 0.4186155   1.008000   ; qtot 0.429572
 3035         os    104    ccc     O5   3035 -0.42966500  16.000000   ; qtot -0.000093
; residue  105 ccc rtp ccc q 0.0
 3036         c3    105    ccc     C1   3036 0.50749700  12.010000   ; qtot 0.507404
 3037         h1    105    ccc     H1   3037 -0.02808400   1.008000   ; qtot 0.479320
 3038         h1    105    ccc     H2   3038 -0.02808400   1.008000   ; qtot 0.451236
 3039         c3    105    ccc     C2   3039 -0.15486000  12.010000   ; qtot 0.296376
 3040         hc    105    ccc     H3   3040 0.10266400   1.008000   ; qtot 0.399040
 3041         hc    105    ccc     H4   3041 0.10266400   1.008000   ; qtot 0.501704
 3042         c3    105    ccc     C3   3042 -0.15693500  12.010000   ; qtot 0.344769
 3043         h1    105    ccc     H5   3043 0.08499200   1.008000   ; qtot 0.429761
 3044         h1    105    ccc     H6   3044 0.08499200   1.008000   ; qtot 0.514753
 3045         n3    105    ccc     N1   3045 -0.29948700  14.010000   ; qtot 0.215266
 3046         c3    105    ccc     C4   3046 -0.01321200  12.010000   ; qtot 0.202054
 3047         h1    105    ccc     H7   3047 0.08172200   1.008000   ; qtot 0.283776
 3048         h1    105    ccc     H8   3048 0.08172200   1.008000   ; qtot 0.365498
 3049         c3    105    ccc     C5   3049 -0.22180000  12.010000   ; qtot 0.143698
 3050         hc    105    ccc     H9   3050 0.09671800   1.008000   ; qtot 0.240416
 3051         hc    105    ccc    H10   3051 0.09671800   1.008000   ; qtot 0.337134
 3052          c    105    ccc     C6   3052 0.526324  12.010000   ; qtot 1.333661
 3053          o    105    ccc     O1   3053 -0.39142825  16.000000   ; qtot 0.637155
 3054         oh    105    ccc     O2   3054 -0.56822625  16.000000   ; qtot -0.203656
 3055         ho    105    ccc    H11   3055 0.4186155   1.008000   ; qtot 0.322419
 3056         c3    105    ccc     C7   3056 -0.01321200  12.010000   ; qtot 0.309207
 3057         h1    105    ccc    H12   3057 0.08172200   1.008000   ; qtot 0.390929
 3058         h1    105    ccc    H13   3058 0.08172200   1.008000   ; qtot 0.472651
 3059         c3    105    ccc     C8   3059 -0.22180000  12.010000   ; qtot 0.250851
 3060         hc    105    ccc    H14   3060 0.09671800   1.008000   ; qtot 0.347569
 3061         hc    105    ccc    H15   3061 0.09671800   1.008000   ; qtot 0.444287
 3062          c    105    ccc     C9   3062 0.526324  12.010000   ; qtot 1.440814
 3063          o    105    ccc     O3   3063 -0.39142825  16.000000   ; qtot 0.744308
 3064         oh    105    ccc     O4   3064 -0.56822625  16.000000   ; qtot -0.096503
 3065         ho    105    ccc    H16   3065 0.4186155   1.008000   ; qtot 0.429572
 3066         os    105    ccc     O5   3066 -0.42966500  16.000000   ; qtot -0.000093
; residue  106 ccc rtp ccc q 0.0
 3067         c3    106    ccc     C1   3067 0.50749700  12.010000   ; qtot 0.507404
 3068         h1    106    ccc     H1   3068 -0.02808400   1.008000   ; qtot 0.479320
 3069         h1    106    ccc     H2   3069 -0.02808400   1.008000   ; qtot 0.451236
 3070         c3    106    ccc     C2   3070 -0.15486000  12.010000   ; qtot 0.296376
 3071         hc    106    ccc     H3   3071 0.10266400   1.008000   ; qtot 0.399040
 3072         hc    106    ccc     H4   3072 0.10266400   1.008000   ; qtot 0.501704
 3073         c3    106    ccc     C3   3073 -0.15693500  12.010000   ; qtot 0.344769
 3074         h1    106    ccc     H5   3074 0.08499200   1.008000   ; qtot 0.429761
 3075         h1    106    ccc     H6   3075 0.08499200   1.008000   ; qtot 0.514753
 3076         n3    106    ccc     N1   3076 -0.29948700  14.010000   ; qtot 0.215266
 3077         c3    106    ccc     C4   3077 -0.01321200  12.010000   ; qtot 0.202054
 3078         h1    106    ccc     H7   3078 0.08172200   1.008000   ; qtot 0.283776
 3079         h1    106    ccc     H8   3079 0.08172200   1.008000   ; qtot 0.365498
 3080         c3    106    ccc     C5   3080 -0.22180000  12.010000   ; qtot 0.143698
 3081         hc    106    ccc     H9   3081 0.09671800   1.008000   ; qtot 0.240416
 3082         hc    106    ccc    H10   3082 0.09671800   1.008000   ; qtot 0.337134
 3083          c    106    ccc     C6   3083 0.526324  12.010000   ; qtot 1.333661
 3084          o    106    ccc     O1   3084 -0.39142825  16.000000   ; qtot 0.637155
 3085         oh    106    ccc     O2   3085 -0.56822625  16.000000   ; qtot -0.203656
 3086         ho    106    ccc    H11   3086 0.4186155   1.008000   ; qtot 0.322419
 3087         c3    106    ccc     C7   3087 -0.01321200  12.010000   ; qtot 0.309207
 3088         h1    106    ccc    H12   3088 0.08172200   1.008000   ; qtot 0.390929
 3089         h1    106    ccc    H13   3089 0.08172200   1.008000   ; qtot 0.472651
 3090         c3    106    ccc     C8   3090 -0.22180000  12.010000   ; qtot 0.250851
 3091         hc    106    ccc    H14   3091 0.09671800   1.008000   ; qtot 0.347569
 3092         hc    106    ccc    H15   3092 0.09671800   1.008000   ; qtot 0.444287
 3093          c    106    ccc     C9   3093 0.526324  12.010000   ; qtot 1.440814
 3094          o    106    ccc     O3   3094 -0.39142825  16.000000   ; qtot 0.744308
 3095         oh    106    ccc     O4   3095 -0.56822625  16.000000   ; qtot -0.096503
 3096         ho    106    ccc    H16   3096 0.4186155   1.008000   ; qtot 0.429572
 3097         os    106    ccc     O5   3097 -0.42966500  16.000000   ; qtot -0.000093
; residue  107 ccc rtp ccc q 0.0
 3098         c3    107    ccc     C1   3098 0.50749700  12.010000   ; qtot 0.507404
 3099         h1    107    ccc     H1   3099 -0.02808400   1.008000   ; qtot 0.479320
 3100         h1    107    ccc     H2   3100 -0.02808400   1.008000   ; qtot 0.451236
 3101         c3    107    ccc     C2   3101 -0.15486000  12.010000   ; qtot 0.296376
 3102         hc    107    ccc     H3   3102 0.10266400   1.008000   ; qtot 0.399040
 3103         hc    107    ccc     H4   3103 0.10266400   1.008000   ; qtot 0.501704
 3104         c3    107    ccc     C3   3104 -0.15693500  12.010000   ; qtot 0.344769
 3105         h1    107    ccc     H5   3105 0.08499200   1.008000   ; qtot 0.429761
 3106         h1    107    ccc     H6   3106 0.08499200   1.008000   ; qtot 0.514753
 3107         n3    107    ccc     N1   3107 -0.29948700  14.010000   ; qtot 0.215266
 3108         c3    107    ccc     C4   3108 -0.01321200  12.010000   ; qtot 0.202054
 3109         h1    107    ccc     H7   3109 0.08172200   1.008000   ; qtot 0.283776
 3110         h1    107    ccc     H8   3110 0.08172200   1.008000   ; qtot 0.365498
 3111         c3    107    ccc     C5   3111 -0.22180000  12.010000   ; qtot 0.143698
 3112         hc    107    ccc     H9   3112 0.09671800   1.008000   ; qtot 0.240416
 3113         hc    107    ccc    H10   3113 0.09671800   1.008000   ; qtot 0.337134
 3114          c    107    ccc     C6   3114 0.526324  12.010000   ; qtot 1.333661
 3115          o    107    ccc     O1   3115 -0.39142825  16.000000   ; qtot 0.637155
 3116         oh    107    ccc     O2   3116 -0.56822625  16.000000   ; qtot -0.203656
 3117         ho    107    ccc    H11   3117 0.4186155   1.008000   ; qtot 0.322419
 3118         c3    107    ccc     C7   3118 -0.01321200  12.010000   ; qtot 0.309207
 3119         h1    107    ccc    H12   3119 0.08172200   1.008000   ; qtot 0.390929
 3120         h1    107    ccc    H13   3120 0.08172200   1.008000   ; qtot 0.472651
 3121         c3    107    ccc     C8   3121 -0.22180000  12.010000   ; qtot 0.250851
 3122         hc    107    ccc    H14   3122 0.09671800   1.008000   ; qtot 0.347569
 3123         hc    107    ccc    H15   3123 0.09671800   1.008000   ; qtot 0.444287
 3124          c    107    ccc     C9   3124 0.526324  12.010000   ; qtot 1.440814
 3125          o    107    ccc     O3   3125 -0.39142825  16.000000   ; qtot 0.744308
 3126         oh    107    ccc     O4   3126 -0.56822625  16.000000   ; qtot -0.096503
 3127         ho    107    ccc    H16   3127 0.4186155   1.008000   ; qtot 0.429572
 3128         os    107    ccc     O5   3128 -0.42966500  16.000000   ; qtot -0.000093
; residue  108 ccc rtp ccc q 0.0
 3129         c3    108    ccc     C1   3129 0.50749700  12.010000   ; qtot 0.507404
 3130         h1    108    ccc     H1   3130 -0.02808400   1.008000   ; qtot 0.479320
 3131         h1    108    ccc     H2   3131 -0.02808400   1.008000   ; qtot 0.451236
 3132         c3    108    ccc     C2   3132 -0.15486000  12.010000   ; qtot 0.296376
 3133         hc    108    ccc     H3   3133 0.10266400   1.008000   ; qtot 0.399040
 3134         hc    108    ccc     H4   3134 0.10266400   1.008000   ; qtot 0.501704
 3135         c3    108    ccc     C3   3135 -0.15693500  12.010000   ; qtot 0.344769
 3136         h1    108    ccc     H5   3136 0.08499200   1.008000   ; qtot 0.429761
 3137         h1    108    ccc     H6   3137 0.08499200   1.008000   ; qtot 0.514753
 3138         n3    108    ccc     N1   3138 -0.29948700  14.010000   ; qtot 0.215266
 3139         c3    108    ccc     C4   3139 -0.01321200  12.010000   ; qtot 0.202054
 3140         h1    108    ccc     H7   3140 0.08172200   1.008000   ; qtot 0.283776
 3141         h1    108    ccc     H8   3141 0.08172200   1.008000   ; qtot 0.365498
 3142         c3    108    ccc     C5   3142 -0.22180000  12.010000   ; qtot 0.143698
 3143         hc    108    ccc     H9   3143 0.09671800   1.008000   ; qtot 0.240416
 3144         hc    108    ccc    H10   3144 0.09671800   1.008000   ; qtot 0.337134
 3145          c    108    ccc     C6   3145 0.526324  12.010000   ; qtot 1.333661
 3146          o    108    ccc     O1   3146 -0.39142825  16.000000   ; qtot 0.637155
 3147         oh    108    ccc     O2   3147 -0.56822625  16.000000   ; qtot -0.203656
 3148         ho    108    ccc    H11   3148 0.4186155   1.008000   ; qtot 0.322419
 3149         c3    108    ccc     C7   3149 -0.01321200  12.010000   ; qtot 0.309207
 3150         h1    108    ccc    H12   3150 0.08172200   1.008000   ; qtot 0.390929
 3151         h1    108    ccc    H13   3151 0.08172200   1.008000   ; qtot 0.472651
 3152         c3    108    ccc     C8   3152 -0.22180000  12.010000   ; qtot 0.250851
 3153         hc    108    ccc    H14   3153 0.09671800   1.008000   ; qtot 0.347569
 3154         hc    108    ccc    H15   3154 0.09671800   1.008000   ; qtot 0.444287
 3155          c    108    ccc     C9   3155 0.526324  12.010000   ; qtot 1.440814
 3156          o    108    ccc     O3   3156 -0.39142825  16.000000   ; qtot 0.744308
 3157         oh    108    ccc     O4   3157 -0.56822625  16.000000   ; qtot -0.096503
 3158         ho    108    ccc    H16   3158 0.4186155   1.008000   ; qtot 0.429572
 3159         os    108    ccc     O5   3159 -0.42966500  16.000000   ; qtot -0.000093
; residue  109 ccc rtp ccc q 0.0
 3160         c3    109    ccc     C1   3160 0.50749700  12.010000   ; qtot 0.507404
 3161         h1    109    ccc     H1   3161 -0.02808400   1.008000   ; qtot 0.479320
 3162         h1    109    ccc     H2   3162 -0.02808400   1.008000   ; qtot 0.451236
 3163         c3    109    ccc     C2   3163 -0.15486000  12.010000   ; qtot 0.296376
 3164         hc    109    ccc     H3   3164 0.10266400   1.008000   ; qtot 0.399040
 3165         hc    109    ccc     H4   3165 0.10266400   1.008000   ; qtot 0.501704
 3166         c3    109    ccc     C3   3166 -0.15693500  12.010000   ; qtot 0.344769
 3167         h1    109    ccc     H5   3167 0.08499200   1.008000   ; qtot 0.429761
 3168         h1    109    ccc     H6   3168 0.08499200   1.008000   ; qtot 0.514753
 3169         n3    109    ccc     N1   3169 -0.29948700  14.010000   ; qtot 0.215266
 3170         c3    109    ccc     C4   3170 -0.01321200  12.010000   ; qtot 0.202054
 3171         h1    109    ccc     H7   3171 0.08172200   1.008000   ; qtot 0.283776
 3172         h1    109    ccc     H8   3172 0.08172200   1.008000   ; qtot 0.365498
 3173         c3    109    ccc     C5   3173 -0.22180000  12.010000   ; qtot 0.143698
 3174         hc    109    ccc     H9   3174 0.09671800   1.008000   ; qtot 0.240416
 3175         hc    109    ccc    H10   3175 0.09671800   1.008000   ; qtot 0.337134
 3176          c    109    ccc     C6   3176 0.526324  12.010000   ; qtot 1.333661
 3177          o    109    ccc     O1   3177 -0.39142825  16.000000   ; qtot 0.637155
 3178         oh    109    ccc     O2   3178 -0.56822625  16.000000   ; qtot -0.203656
 3179         ho    109    ccc    H11   3179 0.4186155   1.008000   ; qtot 0.322419
 3180         c3    109    ccc     C7   3180 -0.01321200  12.010000   ; qtot 0.309207
 3181         h1    109    ccc    H12   3181 0.08172200   1.008000   ; qtot 0.390929
 3182         h1    109    ccc    H13   3182 0.08172200   1.008000   ; qtot 0.472651
 3183         c3    109    ccc     C8   3183 -0.22180000  12.010000   ; qtot 0.250851
 3184         hc    109    ccc    H14   3184 0.09671800   1.008000   ; qtot 0.347569
 3185         hc    109    ccc    H15   3185 0.09671800   1.008000   ; qtot 0.444287
 3186          c    109    ccc     C9   3186 0.526324  12.010000   ; qtot 1.440814
 3187          o    109    ccc     O3   3187 -0.39142825  16.000000   ; qtot 0.744308
 3188         oh    109    ccc     O4   3188 -0.56822625  16.000000   ; qtot -0.096503
 3189         ho    109    ccc    H16   3189 0.4186155   1.008000   ; qtot 0.429572
 3190         os    109    ccc     O5   3190 -0.42966500  16.000000   ; qtot -0.000093
; residue  110 ccc rtp ccc q 0.0
 3191         c3    110    ccc     C1   3191 0.50749700  12.010000   ; qtot 0.507404
 3192         h1    110    ccc     H1   3192 -0.02808400   1.008000   ; qtot 0.479320
 3193         h1    110    ccc     H2   3193 -0.02808400   1.008000   ; qtot 0.451236
 3194         c3    110    ccc     C2   3194 -0.15486000  12.010000   ; qtot 0.296376
 3195         hc    110    ccc     H3   3195 0.10266400   1.008000   ; qtot 0.399040
 3196         hc    110    ccc     H4   3196 0.10266400   1.008000   ; qtot 0.501704
 3197         c3    110    ccc     C3   3197 -0.15693500  12.010000   ; qtot 0.344769
 3198         h1    110    ccc     H5   3198 0.08499200   1.008000   ; qtot 0.429761
 3199         h1    110    ccc     H6   3199 0.08499200   1.008000   ; qtot 0.514753
 3200         n3    110    ccc     N1   3200 -0.29948700  14.010000   ; qtot 0.215266
 3201         c3    110    ccc     C4   3201 -0.01321200  12.010000   ; qtot 0.202054
 3202         h1    110    ccc     H7   3202 0.08172200   1.008000   ; qtot 0.283776
 3203         h1    110    ccc     H8   3203 0.08172200   1.008000   ; qtot 0.365498
 3204         c3    110    ccc     C5   3204 -0.22180000  12.010000   ; qtot 0.143698
 3205         hc    110    ccc     H9   3205 0.09671800   1.008000   ; qtot 0.240416
 3206         hc    110    ccc    H10   3206 0.09671800   1.008000   ; qtot 0.337134
 3207          c    110    ccc     C6   3207 0.526324  12.010000   ; qtot 1.333661
 3208          o    110    ccc     O1   3208 -0.39142825  16.000000   ; qtot 0.637155
 3209         oh    110    ccc     O2   3209 -0.56822625  16.000000   ; qtot -0.203656
 3210         ho    110    ccc    H11   3210 0.4186155   1.008000   ; qtot 0.322419
 3211         c3    110    ccc     C7   3211 -0.01321200  12.010000   ; qtot 0.309207
 3212         h1    110    ccc    H12   3212 0.08172200   1.008000   ; qtot 0.390929
 3213         h1    110    ccc    H13   3213 0.08172200   1.008000   ; qtot 0.472651
 3214         c3    110    ccc     C8   3214 -0.22180000  12.010000   ; qtot 0.250851
 3215         hc    110    ccc    H14   3215 0.09671800   1.008000   ; qtot 0.347569
 3216         hc    110    ccc    H15   3216 0.09671800   1.008000   ; qtot 0.444287
 3217          c    110    ccc     C9   3217 0.526324  12.010000   ; qtot 1.440814
 3218          o    110    ccc     O3   3218 -0.39142825  16.000000   ; qtot 0.744308
 3219         oh    110    ccc     O4   3219 -0.56822625  16.000000   ; qtot -0.096503
 3220         ho    110    ccc    H16   3220 0.4186155   1.008000   ; qtot 0.429572
 3221         os    110    ccc     O5   3221 -0.42966500  16.000000   ; qtot -0.000093
; residue  111 ccc rtp ccc q 0.0
 3222         c3    111    ccc     C1   3222 0.50749700  12.010000   ; qtot 0.507404
 3223         h1    111    ccc     H1   3223 -0.02808400   1.008000   ; qtot 0.479320
 3224         h1    111    ccc     H2   3224 -0.02808400   1.008000   ; qtot 0.451236
 3225         c3    111    ccc     C2   3225 -0.15486000  12.010000   ; qtot 0.296376
 3226         hc    111    ccc     H3   3226 0.10266400   1.008000   ; qtot 0.399040
 3227         hc    111    ccc     H4   3227 0.10266400   1.008000   ; qtot 0.501704
 3228         c3    111    ccc     C3   3228 -0.15693500  12.010000   ; qtot 0.344769
 3229         h1    111    ccc     H5   3229 0.08499200   1.008000   ; qtot 0.429761
 3230         h1    111    ccc     H6   3230 0.08499200   1.008000   ; qtot 0.514753
 3231         n3    111    ccc     N1   3231 -0.29948700  14.010000   ; qtot 0.215266
 3232         c3    111    ccc     C4   3232 -0.01321200  12.010000   ; qtot 0.202054
 3233         h1    111    ccc     H7   3233 0.08172200   1.008000   ; qtot 0.283776
 3234         h1    111    ccc     H8   3234 0.08172200   1.008000   ; qtot 0.365498
 3235         c3    111    ccc     C5   3235 -0.22180000  12.010000   ; qtot 0.143698
 3236         hc    111    ccc     H9   3236 0.09671800   1.008000   ; qtot 0.240416
 3237         hc    111    ccc    H10   3237 0.09671800   1.008000   ; qtot 0.337134
 3238          c    111    ccc     C6   3238 0.526324  12.010000   ; qtot 1.333661
 3239          o    111    ccc     O1   3239 -0.39142825  16.000000   ; qtot 0.637155
 3240         oh    111    ccc     O2   3240 -0.56822625  16.000000   ; qtot -0.203656
 3241         ho    111    ccc    H11   3241 0.4186155   1.008000   ; qtot 0.322419
 3242         c3    111    ccc     C7   3242 -0.01321200  12.010000   ; qtot 0.309207
 3243         h1    111    ccc    H12   3243 0.08172200   1.008000   ; qtot 0.390929
 3244         h1    111    ccc    H13   3244 0.08172200   1.008000   ; qtot 0.472651
 3245         c3    111    ccc     C8   3245 -0.22180000  12.010000   ; qtot 0.250851
 3246         hc    111    ccc    H14   3246 0.09671800   1.008000   ; qtot 0.347569
 3247         hc    111    ccc    H15   3247 0.09671800   1.008000   ; qtot 0.444287
 3248          c    111    ccc     C9   3248 0.526324  12.010000   ; qtot 1.440814
 3249          o    111    ccc     O3   3249 -0.39142825  16.000000   ; qtot 0.744308
 3250         oh    111    ccc     O4   3250 -0.56822625  16.000000   ; qtot -0.096503
 3251         ho    111    ccc    H16   3251 0.4186155   1.008000   ; qtot 0.429572
 3252         os    111    ccc     O5   3252 -0.42966500  16.000000   ; qtot -0.000093
; residue  112 ccc rtp ccc q 0.0
 3253         c3    112    ccc     C1   3253 0.50749700  12.010000   ; qtot 0.507404
 3254         h1    112    ccc     H1   3254 -0.02808400   1.008000   ; qtot 0.479320
 3255         h1    112    ccc     H2   3255 -0.02808400   1.008000   ; qtot 0.451236
 3256         c3    112    ccc     C2   3256 -0.15486000  12.010000   ; qtot 0.296376
 3257         hc    112    ccc     H3   3257 0.10266400   1.008000   ; qtot 0.399040
 3258         hc    112    ccc     H4   3258 0.10266400   1.008000   ; qtot 0.501704
 3259         c3    112    ccc     C3   3259 -0.15693500  12.010000   ; qtot 0.344769
 3260         h1    112    ccc     H5   3260 0.08499200   1.008000   ; qtot 0.429761
 3261         h1    112    ccc     H6   3261 0.08499200   1.008000   ; qtot 0.514753
 3262         n3    112    ccc     N1   3262 -0.29948700  14.010000   ; qtot 0.215266
 3263         c3    112    ccc     C4   3263 -0.01321200  12.010000   ; qtot 0.202054
 3264         h1    112    ccc     H7   3264 0.08172200   1.008000   ; qtot 0.283776
 3265         h1    112    ccc     H8   3265 0.08172200   1.008000   ; qtot 0.365498
 3266         c3    112    ccc     C5   3266 -0.22180000  12.010000   ; qtot 0.143698
 3267         hc    112    ccc     H9   3267 0.09671800   1.008000   ; qtot 0.240416
 3268         hc    112    ccc    H10   3268 0.09671800   1.008000   ; qtot 0.337134
 3269          c    112    ccc     C6   3269 0.526324  12.010000   ; qtot 1.333661
 3270          o    112    ccc     O1   3270 -0.39142825  16.000000   ; qtot 0.637155
 3271         oh    112    ccc     O2   3271 -0.56822625  16.000000   ; qtot -0.203656
 3272         ho    112    ccc    H11   3272 0.4186155   1.008000   ; qtot 0.322419
 3273         c3    112    ccc     C7   3273 -0.01321200  12.010000   ; qtot 0.309207
 3274         h1    112    ccc    H12   3274 0.08172200   1.008000   ; qtot 0.390929
 3275         h1    112    ccc    H13   3275 0.08172200   1.008000   ; qtot 0.472651
 3276         c3    112    ccc     C8   3276 -0.22180000  12.010000   ; qtot 0.250851
 3277         hc    112    ccc    H14   3277 0.09671800   1.008000   ; qtot 0.347569
 3278         hc    112    ccc    H15   3278 0.09671800   1.008000   ; qtot 0.444287
 3279          c    112    ccc     C9   3279 0.526324  12.010000   ; qtot 1.440814
 3280          o    112    ccc     O3   3280 -0.39142825  16.000000   ; qtot 0.744308
 3281         oh    112    ccc     O4   3281 -0.56822625  16.000000   ; qtot -0.096503
 3282         ho    112    ccc    H16   3282 0.4186155   1.008000   ; qtot 0.429572
 3283         os    112    ccc     O5   3283 -0.42966500  16.000000   ; qtot -0.000093
; residue  113 ccc rtp ccc q 0.0
 3284         c3    113    ccc     C1   3284 0.50749700  12.010000   ; qtot 0.507404
 3285         h1    113    ccc     H1   3285 -0.02808400   1.008000   ; qtot 0.479320
 3286         h1    113    ccc     H2   3286 -0.02808400   1.008000   ; qtot 0.451236
 3287         c3    113    ccc     C2   3287 -0.15486000  12.010000   ; qtot 0.296376
 3288         hc    113    ccc     H3   3288 0.10266400   1.008000   ; qtot 0.399040
 3289         hc    113    ccc     H4   3289 0.10266400   1.008000   ; qtot 0.501704
 3290         c3    113    ccc     C3   3290 -0.15693500  12.010000   ; qtot 0.344769
 3291         h1    113    ccc     H5   3291 0.08499200   1.008000   ; qtot 0.429761
 3292         h1    113    ccc     H6   3292 0.08499200   1.008000   ; qtot 0.514753
 3293         n3    113    ccc     N1   3293 -0.29948700  14.010000   ; qtot 0.215266
 3294         c3    113    ccc     C4   3294 -0.01321200  12.010000   ; qtot 0.202054
 3295         h1    113    ccc     H7   3295 0.08172200   1.008000   ; qtot 0.283776
 3296         h1    113    ccc     H8   3296 0.08172200   1.008000   ; qtot 0.365498
 3297         c3    113    ccc     C5   3297 -0.22180000  12.010000   ; qtot 0.143698
 3298         hc    113    ccc     H9   3298 0.09671800   1.008000   ; qtot 0.240416
 3299         hc    113    ccc    H10   3299 0.09671800   1.008000   ; qtot 0.337134
 3300          c    113    ccc     C6   3300 0.526324  12.010000   ; qtot 1.333661
 3301          o    113    ccc     O1   3301 -0.39142825  16.000000   ; qtot 0.637155
 3302         oh    113    ccc     O2   3302 -0.56822625  16.000000   ; qtot -0.203656
 3303         ho    113    ccc    H11   3303 0.4186155   1.008000   ; qtot 0.322419
 3304         c3    113    ccc     C7   3304 -0.01321200  12.010000   ; qtot 0.309207
 3305         h1    113    ccc    H12   3305 0.08172200   1.008000   ; qtot 0.390929
 3306         h1    113    ccc    H13   3306 0.08172200   1.008000   ; qtot 0.472651
 3307         c3    113    ccc     C8   3307 -0.22180000  12.010000   ; qtot 0.250851
 3308         hc    113    ccc    H14   3308 0.09671800   1.008000   ; qtot 0.347569
 3309         hc    113    ccc    H15   3309 0.09671800   1.008000   ; qtot 0.444287
 3310          c    113    ccc     C9   3310 0.526324  12.010000   ; qtot 1.440814
 3311          o    113    ccc     O3   3311 -0.39142825  16.000000   ; qtot 0.744308
 3312         oh    113    ccc     O4   3312 -0.56822625  16.000000   ; qtot -0.096503
 3313         ho    113    ccc    H16   3313 0.4186155   1.008000   ; qtot 0.429572
 3314         os    113    ccc     O5   3314 -0.42966500  16.000000   ; qtot -0.000093
; residue  114 ccc rtp ccc q 0.0
 3315         c3    114    ccc     C1   3315 0.50749700  12.010000   ; qtot 0.507404
 3316         h1    114    ccc     H1   3316 -0.02808400   1.008000   ; qtot 0.479320
 3317         h1    114    ccc     H2   3317 -0.02808400   1.008000   ; qtot 0.451236
 3318         c3    114    ccc     C2   3318 -0.15486000  12.010000   ; qtot 0.296376
 3319         hc    114    ccc     H3   3319 0.10266400   1.008000   ; qtot 0.399040
 3320         hc    114    ccc     H4   3320 0.10266400   1.008000   ; qtot 0.501704
 3321         c3    114    ccc     C3   3321 -0.15693500  12.010000   ; qtot 0.344769
 3322         h1    114    ccc     H5   3322 0.08499200   1.008000   ; qtot 0.429761
 3323         h1    114    ccc     H6   3323 0.08499200   1.008000   ; qtot 0.514753
 3324         n3    114    ccc     N1   3324 -0.29948700  14.010000   ; qtot 0.215266
 3325         c3    114    ccc     C4   3325 -0.01321200  12.010000   ; qtot 0.202054
 3326         h1    114    ccc     H7   3326 0.08172200   1.008000   ; qtot 0.283776
 3327         h1    114    ccc     H8   3327 0.08172200   1.008000   ; qtot 0.365498
 3328         c3    114    ccc     C5   3328 -0.22180000  12.010000   ; qtot 0.143698
 3329         hc    114    ccc     H9   3329 0.09671800   1.008000   ; qtot 0.240416
 3330         hc    114    ccc    H10   3330 0.09671800   1.008000   ; qtot 0.337134
 3331          c    114    ccc     C6   3331 0.526324  12.010000   ; qtot 1.333661
 3332          o    114    ccc     O1   3332 -0.39142825  16.000000   ; qtot 0.637155
 3333         oh    114    ccc     O2   3333 -0.56822625  16.000000   ; qtot -0.203656
 3334         ho    114    ccc    H11   3334 0.4186155   1.008000   ; qtot 0.322419
 3335         c3    114    ccc     C7   3335 -0.01321200  12.010000   ; qtot 0.309207
 3336         h1    114    ccc    H12   3336 0.08172200   1.008000   ; qtot 0.390929
 3337         h1    114    ccc    H13   3337 0.08172200   1.008000   ; qtot 0.472651
 3338         c3    114    ccc     C8   3338 -0.22180000  12.010000   ; qtot 0.250851
 3339         hc    114    ccc    H14   3339 0.09671800   1.008000   ; qtot 0.347569
 3340         hc    114    ccc    H15   3340 0.09671800   1.008000   ; qtot 0.444287
 3341          c    114    ccc     C9   3341 0.526324  12.010000   ; qtot 1.440814
 3342          o    114    ccc     O3   3342 -0.39142825  16.000000   ; qtot 0.744308
 3343         oh    114    ccc     O4   3343 -0.56822625  16.000000   ; qtot -0.096503
 3344         ho    114    ccc    H16   3344 0.4186155   1.008000   ; qtot 0.429572
 3345         os    114    ccc     O5   3345 -0.42966500  16.000000   ; qtot -0.000093
; residue  115 ccc rtp ccc q 0.0
 3346         c3    115    ccc     C1   3346 0.50749700  12.010000   ; qtot 0.507404
 3347         h1    115    ccc     H1   3347 -0.02808400   1.008000   ; qtot 0.479320
 3348         h1    115    ccc     H2   3348 -0.02808400   1.008000   ; qtot 0.451236
 3349         c3    115    ccc     C2   3349 -0.15486000  12.010000   ; qtot 0.296376
 3350         hc    115    ccc     H3   3350 0.10266400   1.008000   ; qtot 0.399040
 3351         hc    115    ccc     H4   3351 0.10266400   1.008000   ; qtot 0.501704
 3352         c3    115    ccc     C3   3352 -0.15693500  12.010000   ; qtot 0.344769
 3353         h1    115    ccc     H5   3353 0.08499200   1.008000   ; qtot 0.429761
 3354         h1    115    ccc     H6   3354 0.08499200   1.008000   ; qtot 0.514753
 3355         n3    115    ccc     N1   3355 -0.29948700  14.010000   ; qtot 0.215266
 3356         c3    115    ccc     C4   3356 -0.01321200  12.010000   ; qtot 0.202054
 3357         h1    115    ccc     H7   3357 0.08172200   1.008000   ; qtot 0.283776
 3358         h1    115    ccc     H8   3358 0.08172200   1.008000   ; qtot 0.365498
 3359         c3    115    ccc     C5   3359 -0.22180000  12.010000   ; qtot 0.143698
 3360         hc    115    ccc     H9   3360 0.09671800   1.008000   ; qtot 0.240416
 3361         hc    115    ccc    H10   3361 0.09671800   1.008000   ; qtot 0.337134
 3362          c    115    ccc     C6   3362 0.526324  12.010000   ; qtot 1.333661
 3363          o    115    ccc     O1   3363 -0.39142825  16.000000   ; qtot 0.637155
 3364         oh    115    ccc     O2   3364 -0.56822625  16.000000   ; qtot -0.203656
 3365         ho    115    ccc    H11   3365 0.4186155   1.008000   ; qtot 0.322419
 3366         c3    115    ccc     C7   3366 -0.01321200  12.010000   ; qtot 0.309207
 3367         h1    115    ccc    H12   3367 0.08172200   1.008000   ; qtot 0.390929
 3368         h1    115    ccc    H13   3368 0.08172200   1.008000   ; qtot 0.472651
 3369         c3    115    ccc     C8   3369 -0.22180000  12.010000   ; qtot 0.250851
 3370         hc    115    ccc    H14   3370 0.09671800   1.008000   ; qtot 0.347569
 3371         hc    115    ccc    H15   3371 0.09671800   1.008000   ; qtot 0.444287
 3372          c    115    ccc     C9   3372 0.526324  12.010000   ; qtot 1.440814
 3373          o    115    ccc     O3   3373 -0.39142825  16.000000   ; qtot 0.744308
 3374         oh    115    ccc     O4   3374 -0.56822625  16.000000   ; qtot -0.096503
 3375         ho    115    ccc    H16   3375 0.4186155   1.008000   ; qtot 0.429572
 3376         os    115    ccc     O5   3376 -0.42966500  16.000000   ; qtot -0.000093
; residue  116 ccc rtp ccc q 0.0
 3377         c3    116    ccc     C1   3377 0.50749700  12.010000   ; qtot 0.507404
 3378         h1    116    ccc     H1   3378 -0.02808400   1.008000   ; qtot 0.479320
 3379         h1    116    ccc     H2   3379 -0.02808400   1.008000   ; qtot 0.451236
 3380         c3    116    ccc     C2   3380 -0.15486000  12.010000   ; qtot 0.296376
 3381         hc    116    ccc     H3   3381 0.10266400   1.008000   ; qtot 0.399040
 3382         hc    116    ccc     H4   3382 0.10266400   1.008000   ; qtot 0.501704
 3383         c3    116    ccc     C3   3383 -0.15693500  12.010000   ; qtot 0.344769
 3384         h1    116    ccc     H5   3384 0.08499200   1.008000   ; qtot 0.429761
 3385         h1    116    ccc     H6   3385 0.08499200   1.008000   ; qtot 0.514753
 3386         n3    116    ccc     N1   3386 -0.29948700  14.010000   ; qtot 0.215266
 3387         c3    116    ccc     C4   3387 -0.01321200  12.010000   ; qtot 0.202054
 3388         h1    116    ccc     H7   3388 0.08172200   1.008000   ; qtot 0.283776
 3389         h1    116    ccc     H8   3389 0.08172200   1.008000   ; qtot 0.365498
 3390         c3    116    ccc     C5   3390 -0.22180000  12.010000   ; qtot 0.143698
 3391         hc    116    ccc     H9   3391 0.09671800   1.008000   ; qtot 0.240416
 3392         hc    116    ccc    H10   3392 0.09671800   1.008000   ; qtot 0.337134
 3393          c    116    ccc     C6   3393 0.526324  12.010000   ; qtot 1.333661
 3394          o    116    ccc     O1   3394 -0.39142825  16.000000   ; qtot 0.637155
 3395         oh    116    ccc     O2   3395 -0.56822625  16.000000   ; qtot -0.203656
 3396         ho    116    ccc    H11   3396 0.4186155   1.008000   ; qtot 0.322419
 3397         c3    116    ccc     C7   3397 -0.01321200  12.010000   ; qtot 0.309207
 3398         h1    116    ccc    H12   3398 0.08172200   1.008000   ; qtot 0.390929
 3399         h1    116    ccc    H13   3399 0.08172200   1.008000   ; qtot 0.472651
 3400         c3    116    ccc     C8   3400 -0.22180000  12.010000   ; qtot 0.250851
 3401         hc    116    ccc    H14   3401 0.09671800   1.008000   ; qtot 0.347569
 3402         hc    116    ccc    H15   3402 0.09671800   1.008000   ; qtot 0.444287
 3403          c    116    ccc     C9   3403 0.526324  12.010000   ; qtot 1.440814
 3404          o    116    ccc     O3   3404 -0.39142825  16.000000   ; qtot 0.744308
 3405         oh    116    ccc     O4   3405 -0.56822625  16.000000   ; qtot -0.096503
 3406         ho    116    ccc    H16   3406 0.4186155   1.008000   ; qtot 0.429572
 3407         os    116    ccc     O5   3407 -0.42966500  16.000000   ; qtot -0.000093
; residue  117 ccc rtp ccc q 0.0
 3408         c3    117    ccc     C1   3408 0.50749700  12.010000   ; qtot 0.507404
 3409         h1    117    ccc     H1   3409 -0.02808400   1.008000   ; qtot 0.479320
 3410         h1    117    ccc     H2   3410 -0.02808400   1.008000   ; qtot 0.451236
 3411         c3    117    ccc     C2   3411 -0.15486000  12.010000   ; qtot 0.296376
 3412         hc    117    ccc     H3   3412 0.10266400   1.008000   ; qtot 0.399040
 3413         hc    117    ccc     H4   3413 0.10266400   1.008000   ; qtot 0.501704
 3414         c3    117    ccc     C3   3414 -0.15693500  12.010000   ; qtot 0.344769
 3415         h1    117    ccc     H5   3415 0.08499200   1.008000   ; qtot 0.429761
 3416         h1    117    ccc     H6   3416 0.08499200   1.008000   ; qtot 0.514753
 3417         n3    117    ccc     N1   3417 -0.29948700  14.010000   ; qtot 0.215266
 3418         c3    117    ccc     C4   3418 -0.01321200  12.010000   ; qtot 0.202054
 3419         h1    117    ccc     H7   3419 0.08172200   1.008000   ; qtot 0.283776
 3420         h1    117    ccc     H8   3420 0.08172200   1.008000   ; qtot 0.365498
 3421         c3    117    ccc     C5   3421 -0.22180000  12.010000   ; qtot 0.143698
 3422         hc    117    ccc     H9   3422 0.09671800   1.008000   ; qtot 0.240416
 3423         hc    117    ccc    H10   3423 0.09671800   1.008000   ; qtot 0.337134
 3424          c    117    ccc     C6   3424 0.526324  12.010000   ; qtot 1.333661
 3425          o    117    ccc     O1   3425 -0.39142825  16.000000   ; qtot 0.637155
 3426         oh    117    ccc     O2   3426 -0.56822625  16.000000   ; qtot -0.203656
 3427         ho    117    ccc    H11   3427 0.4186155   1.008000   ; qtot 0.322419
 3428         c3    117    ccc     C7   3428 -0.01321200  12.010000   ; qtot 0.309207
 3429         h1    117    ccc    H12   3429 0.08172200   1.008000   ; qtot 0.390929
 3430         h1    117    ccc    H13   3430 0.08172200   1.008000   ; qtot 0.472651
 3431         c3    117    ccc     C8   3431 -0.22180000  12.010000   ; qtot 0.250851
 3432         hc    117    ccc    H14   3432 0.09671800   1.008000   ; qtot 0.347569
 3433         hc    117    ccc    H15   3433 0.09671800   1.008000   ; qtot 0.444287
 3434          c    117    ccc     C9   3434 0.526324  12.010000   ; qtot 1.440814
 3435          o    117    ccc     O3   3435 -0.39142825  16.000000   ; qtot 0.744308
 3436         oh    117    ccc     O4   3436 -0.56822625  16.000000   ; qtot -0.096503
 3437         ho    117    ccc    H16   3437 0.4186155   1.008000   ; qtot 0.429572
 3438         os    117    ccc     O5   3438 -0.42966500  16.000000   ; qtot -0.000093
; residue  118 ccc rtp ccc q 0.0
 3439         c3    118    ccc     C1   3439 0.50749700  12.010000   ; qtot 0.507404
 3440         h1    118    ccc     H1   3440 -0.02808400   1.008000   ; qtot 0.479320
 3441         h1    118    ccc     H2   3441 -0.02808400   1.008000   ; qtot 0.451236
 3442         c3    118    ccc     C2   3442 -0.15486000  12.010000   ; qtot 0.296376
 3443         hc    118    ccc     H3   3443 0.10266400   1.008000   ; qtot 0.399040
 3444         hc    118    ccc     H4   3444 0.10266400   1.008000   ; qtot 0.501704
 3445         c3    118    ccc     C3   3445 -0.15693500  12.010000   ; qtot 0.344769
 3446         h1    118    ccc     H5   3446 0.08499200   1.008000   ; qtot 0.429761
 3447         h1    118    ccc     H6   3447 0.08499200   1.008000   ; qtot 0.514753
 3448         n3    118    ccc     N1   3448 -0.29948700  14.010000   ; qtot 0.215266
 3449         c3    118    ccc     C4   3449 -0.01321200  12.010000   ; qtot 0.202054
 3450         h1    118    ccc     H7   3450 0.08172200   1.008000   ; qtot 0.283776
 3451         h1    118    ccc     H8   3451 0.08172200   1.008000   ; qtot 0.365498
 3452         c3    118    ccc     C5   3452 -0.22180000  12.010000   ; qtot 0.143698
 3453         hc    118    ccc     H9   3453 0.09671800   1.008000   ; qtot 0.240416
 3454         hc    118    ccc    H10   3454 0.09671800   1.008000   ; qtot 0.337134
 3455          c    118    ccc     C6   3455 0.526324  12.010000   ; qtot 1.333661
 3456          o    118    ccc     O1   3456 -0.39142825  16.000000   ; qtot 0.637155
 3457         oh    118    ccc     O2   3457 -0.56822625  16.000000   ; qtot -0.203656
 3458         ho    118    ccc    H11   3458 0.4186155   1.008000   ; qtot 0.322419
 3459         c3    118    ccc     C7   3459 -0.01321200  12.010000   ; qtot 0.309207
 3460         h1    118    ccc    H12   3460 0.08172200   1.008000   ; qtot 0.390929
 3461         h1    118    ccc    H13   3461 0.08172200   1.008000   ; qtot 0.472651
 3462         c3    118    ccc     C8   3462 -0.22180000  12.010000   ; qtot 0.250851
 3463         hc    118    ccc    H14   3463 0.09671800   1.008000   ; qtot 0.347569
 3464         hc    118    ccc    H15   3464 0.09671800   1.008000   ; qtot 0.444287
 3465          c    118    ccc     C9   3465 0.526324  12.010000   ; qtot 1.440814
 3466          o    118    ccc     O3   3466 -0.39142825  16.000000   ; qtot 0.744308
 3467         oh    118    ccc     O4   3467 -0.56822625  16.000000   ; qtot -0.096503
 3468         ho    118    ccc    H16   3468 0.4186155   1.008000   ; qtot 0.429572
 3469         os    118    ccc     O5   3469 -0.42966500  16.000000   ; qtot -0.000093
; residue  119 ccc rtp ccc q 0.0
 3470         c3    119    ccc     C1   3470 0.50749700  12.010000   ; qtot 0.507404
 3471         h1    119    ccc     H1   3471 -0.02808400   1.008000   ; qtot 0.479320
 3472         h1    119    ccc     H2   3472 -0.02808400   1.008000   ; qtot 0.451236
 3473         c3    119    ccc     C2   3473 -0.15486000  12.010000   ; qtot 0.296376
 3474         hc    119    ccc     H3   3474 0.10266400   1.008000   ; qtot 0.399040
 3475         hc    119    ccc     H4   3475 0.10266400   1.008000   ; qtot 0.501704
 3476         c3    119    ccc     C3   3476 -0.15693500  12.010000   ; qtot 0.344769
 3477         h1    119    ccc     H5   3477 0.08499200   1.008000   ; qtot 0.429761
 3478         h1    119    ccc     H6   3478 0.08499200   1.008000   ; qtot 0.514753
 3479         n3    119    ccc     N1   3479 -0.29948700  14.010000   ; qtot 0.215266
 3480         c3    119    ccc     C4   3480 -0.01321200  12.010000   ; qtot 0.202054
 3481         h1    119    ccc     H7   3481 0.08172200   1.008000   ; qtot 0.283776
 3482         h1    119    ccc     H8   3482 0.08172200   1.008000   ; qtot 0.365498
 3483         c3    119    ccc     C5   3483 -0.22180000  12.010000   ; qtot 0.143698
 3484         hc    119    ccc     H9   3484 0.09671800   1.008000   ; qtot 0.240416
 3485         hc    119    ccc    H10   3485 0.09671800   1.008000   ; qtot 0.337134
 3486          c    119    ccc     C6   3486 0.526324  12.010000   ; qtot 1.333661
 3487          o    119    ccc     O1   3487 -0.39142825  16.000000   ; qtot 0.637155
 3488         oh    119    ccc     O2   3488 -0.56822625  16.000000   ; qtot -0.203656
 3489         ho    119    ccc    H11   3489 0.4186155   1.008000   ; qtot 0.322419
 3490         c3    119    ccc     C7   3490 -0.01321200  12.010000   ; qtot 0.309207
 3491         h1    119    ccc    H12   3491 0.08172200   1.008000   ; qtot 0.390929
 3492         h1    119    ccc    H13   3492 0.08172200   1.008000   ; qtot 0.472651
 3493         c3    119    ccc     C8   3493 -0.22180000  12.010000   ; qtot 0.250851
 3494         hc    119    ccc    H14   3494 0.09671800   1.008000   ; qtot 0.347569
 3495         hc    119    ccc    H15   3495 0.09671800   1.008000   ; qtot 0.444287
 3496          c    119    ccc     C9   3496 0.526324  12.010000   ; qtot 1.440814
 3497          o    119    ccc     O3   3497 -0.39142825  16.000000   ; qtot 0.744308
 3498         oh    119    ccc     O4   3498 -0.56822625  16.000000   ; qtot -0.096503
 3499         ho    119    ccc    H16   3499 0.4186155   1.008000   ; qtot 0.429572
 3500         os    119    ccc     O5   3500 -0.42966500  16.000000   ; qtot -0.000093
; residue  120 ccc rtp ccc q 0.0
 3501         c3    120    ccc     C1   3501 0.50749700  12.010000   ; qtot 0.507404
 3502         h1    120    ccc     H1   3502 -0.02808400   1.008000   ; qtot 0.479320
 3503         h1    120    ccc     H2   3503 -0.02808400   1.008000   ; qtot 0.451236
 3504         c3    120    ccc     C2   3504 -0.15486000  12.010000   ; qtot 0.296376
 3505         hc    120    ccc     H3   3505 0.10266400   1.008000   ; qtot 0.399040
 3506         hc    120    ccc     H4   3506 0.10266400   1.008000   ; qtot 0.501704
 3507         c3    120    ccc     C3   3507 -0.15693500  12.010000   ; qtot 0.344769
 3508         h1    120    ccc     H5   3508 0.08499200   1.008000   ; qtot 0.429761
 3509         h1    120    ccc     H6   3509 0.08499200   1.008000   ; qtot 0.514753
 3510         n3    120    ccc     N1   3510 -0.29948700  14.010000   ; qtot 0.215266
 3511         c3    120    ccc     C4   3511 -0.01321200  12.010000   ; qtot 0.202054
 3512         h1    120    ccc     H7   3512 0.08172200   1.008000   ; qtot 0.283776
 3513         h1    120    ccc     H8   3513 0.08172200   1.008000   ; qtot 0.365498
 3514         c3    120    ccc     C5   3514 -0.22180000  12.010000   ; qtot 0.143698
 3515         hc    120    ccc     H9   3515 0.09671800   1.008000   ; qtot 0.240416
 3516         hc    120    ccc    H10   3516 0.09671800   1.008000   ; qtot 0.337134
 3517          c    120    ccc     C6   3517 0.526324  12.010000   ; qtot 1.333661
 3518          o    120    ccc     O1   3518 -0.39142825  16.000000   ; qtot 0.637155
 3519         oh    120    ccc     O2   3519 -0.56822625  16.000000   ; qtot -0.203656
 3520         ho    120    ccc    H11   3520 0.4186155   1.008000   ; qtot 0.322419
 3521         c3    120    ccc     C7   3521 -0.01321200  12.010000   ; qtot 0.309207
 3522         h1    120    ccc    H12   3522 0.08172200   1.008000   ; qtot 0.390929
 3523         h1    120    ccc    H13   3523 0.08172200   1.008000   ; qtot 0.472651
 3524         c3    120    ccc     C8   3524 -0.22180000  12.010000   ; qtot 0.250851
 3525         hc    120    ccc    H14   3525 0.09671800   1.008000   ; qtot 0.347569
 3526         hc    120    ccc    H15   3526 0.09671800   1.008000   ; qtot 0.444287
 3527          c    120    ccc     C9   3527 0.526324  12.010000   ; qtot 1.440814
 3528          o    120    ccc     O3   3528 -0.39142825  16.000000   ; qtot 0.744308
 3529         oh    120    ccc     O4   3529 -0.56822625  16.000000   ; qtot -0.096503
 3530         ho    120    ccc    H16   3530 0.4186155   1.008000   ; qtot 0.429572
 3531         os    120    ccc     O5   3531 -0.42966500  16.000000   ; qtot -0.000093
; residue  121 ccc rtp ccc q 0.0
 3532         c3    121    ccc     C1   3532 0.50749700  12.010000   ; qtot 0.507404
 3533         h1    121    ccc     H1   3533 -0.02808400   1.008000   ; qtot 0.479320
 3534         h1    121    ccc     H2   3534 -0.02808400   1.008000   ; qtot 0.451236
 3535         c3    121    ccc     C2   3535 -0.15486000  12.010000   ; qtot 0.296376
 3536         hc    121    ccc     H3   3536 0.10266400   1.008000   ; qtot 0.399040
 3537         hc    121    ccc     H4   3537 0.10266400   1.008000   ; qtot 0.501704
 3538         c3    121    ccc     C3   3538 -0.15693500  12.010000   ; qtot 0.344769
 3539         h1    121    ccc     H5   3539 0.08499200   1.008000   ; qtot 0.429761
 3540         h1    121    ccc     H6   3540 0.08499200   1.008000   ; qtot 0.514753
 3541         n3    121    ccc     N1   3541 -0.29948700  14.010000   ; qtot 0.215266
 3542         c3    121    ccc     C4   3542 -0.01321200  12.010000   ; qtot 0.202054
 3543         h1    121    ccc     H7   3543 0.08172200   1.008000   ; qtot 0.283776
 3544         h1    121    ccc     H8   3544 0.08172200   1.008000   ; qtot 0.365498
 3545         c3    121    ccc     C5   3545 -0.22180000  12.010000   ; qtot 0.143698
 3546         hc    121    ccc     H9   3546 0.09671800   1.008000   ; qtot 0.240416
 3547         hc    121    ccc    H10   3547 0.09671800   1.008000   ; qtot 0.337134
 3548          c    121    ccc     C6   3548 0.526324  12.010000   ; qtot 1.333661
 3549          o    121    ccc     O1   3549 -0.39142825  16.000000   ; qtot 0.637155
 3550         oh    121    ccc     O2   3550 -0.56822625  16.000000   ; qtot -0.203656
 3551         ho    121    ccc    H11   3551 0.4186155   1.008000   ; qtot 0.322419
 3552         c3    121    ccc     C7   3552 -0.01321200  12.010000   ; qtot 0.309207
 3553         h1    121    ccc    H12   3553 0.08172200   1.008000   ; qtot 0.390929
 3554         h1    121    ccc    H13   3554 0.08172200   1.008000   ; qtot 0.472651
 3555         c3    121    ccc     C8   3555 -0.22180000  12.010000   ; qtot 0.250851
 3556         hc    121    ccc    H14   3556 0.09671800   1.008000   ; qtot 0.347569
 3557         hc    121    ccc    H15   3557 0.09671800   1.008000   ; qtot 0.444287
 3558          c    121    ccc     C9   3558 0.526324  12.010000   ; qtot 1.440814
 3559          o    121    ccc     O3   3559 -0.39142825  16.000000   ; qtot 0.744308
 3560         oh    121    ccc     O4   3560 -0.56822625  16.000000   ; qtot -0.096503
 3561         ho    121    ccc    H16   3561 0.4186155   1.008000   ; qtot 0.429572
 3562         os    121    ccc     O5   3562 -0.42966500  16.000000   ; qtot -0.000093
; residue  122 ccc rtp ccc q 0.0
 3563         c3    122    ccc     C1   3563 0.50749700  12.010000   ; qtot 0.507404
 3564         h1    122    ccc     H1   3564 -0.02808400   1.008000   ; qtot 0.479320
 3565         h1    122    ccc     H2   3565 -0.02808400   1.008000   ; qtot 0.451236
 3566         c3    122    ccc     C2   3566 -0.15486000  12.010000   ; qtot 0.296376
 3567         hc    122    ccc     H3   3567 0.10266400   1.008000   ; qtot 0.399040
 3568         hc    122    ccc     H4   3568 0.10266400   1.008000   ; qtot 0.501704
 3569         c3    122    ccc     C3   3569 -0.15693500  12.010000   ; qtot 0.344769
 3570         h1    122    ccc     H5   3570 0.08499200   1.008000   ; qtot 0.429761
 3571         h1    122    ccc     H6   3571 0.08499200   1.008000   ; qtot 0.514753
 3572         n3    122    ccc     N1   3572 -0.29948700  14.010000   ; qtot 0.215266
 3573         c3    122    ccc     C4   3573 -0.01321200  12.010000   ; qtot 0.202054
 3574         h1    122    ccc     H7   3574 0.08172200   1.008000   ; qtot 0.283776
 3575         h1    122    ccc     H8   3575 0.08172200   1.008000   ; qtot 0.365498
 3576         c3    122    ccc     C5   3576 -0.22180000  12.010000   ; qtot 0.143698
 3577         hc    122    ccc     H9   3577 0.09671800   1.008000   ; qtot 0.240416
 3578         hc    122    ccc    H10   3578 0.09671800   1.008000   ; qtot 0.337134
 3579          c    122    ccc     C6   3579 0.526324  12.010000   ; qtot 1.333661
 3580          o    122    ccc     O1   3580 -0.39142825  16.000000   ; qtot 0.637155
 3581         oh    122    ccc     O2   3581 -0.56822625  16.000000   ; qtot -0.203656
 3582         ho    122    ccc    H11   3582 0.4186155   1.008000   ; qtot 0.322419
 3583         c3    122    ccc     C7   3583 -0.01321200  12.010000   ; qtot 0.309207
 3584         h1    122    ccc    H12   3584 0.08172200   1.008000   ; qtot 0.390929
 3585         h1    122    ccc    H13   3585 0.08172200   1.008000   ; qtot 0.472651
 3586         c3    122    ccc     C8   3586 -0.22180000  12.010000   ; qtot 0.250851
 3587         hc    122    ccc    H14   3587 0.09671800   1.008000   ; qtot 0.347569
 3588         hc    122    ccc    H15   3588 0.09671800   1.008000   ; qtot 0.444287
 3589          c    122    ccc     C9   3589 0.526324  12.010000   ; qtot 1.440814
 3590          o    122    ccc     O3   3590 -0.39142825  16.000000   ; qtot 0.744308
 3591         oh    122    ccc     O4   3591 -0.56822625  16.000000   ; qtot -0.096503
 3592         ho    122    ccc    H16   3592 0.4186155   1.008000   ; qtot 0.429572
 3593         os    122    ccc     O5   3593 -0.42966500  16.000000   ; qtot -0.000093
; residue  123 ccc rtp ccc q 0.0
 3594         c3    123    ccc     C1   3594 0.50749700  12.010000   ; qtot 0.507404
 3595         h1    123    ccc     H1   3595 -0.02808400   1.008000   ; qtot 0.479320
 3596         h1    123    ccc     H2   3596 -0.02808400   1.008000   ; qtot 0.451236
 3597         c3    123    ccc     C2   3597 -0.15486000  12.010000   ; qtot 0.296376
 3598         hc    123    ccc     H3   3598 0.10266400   1.008000   ; qtot 0.399040
 3599         hc    123    ccc     H4   3599 0.10266400   1.008000   ; qtot 0.501704
 3600         c3    123    ccc     C3   3600 -0.15693500  12.010000   ; qtot 0.344769
 3601         h1    123    ccc     H5   3601 0.08499200   1.008000   ; qtot 0.429761
 3602         h1    123    ccc     H6   3602 0.08499200   1.008000   ; qtot 0.514753
 3603         n3    123    ccc     N1   3603 -0.29948700  14.010000   ; qtot 0.215266
 3604         c3    123    ccc     C4   3604 -0.01321200  12.010000   ; qtot 0.202054
 3605         h1    123    ccc     H7   3605 0.08172200   1.008000   ; qtot 0.283776
 3606         h1    123    ccc     H8   3606 0.08172200   1.008000   ; qtot 0.365498
 3607         c3    123    ccc     C5   3607 -0.22180000  12.010000   ; qtot 0.143698
 3608         hc    123    ccc     H9   3608 0.09671800   1.008000   ; qtot 0.240416
 3609         hc    123    ccc    H10   3609 0.09671800   1.008000   ; qtot 0.337134
 3610          c    123    ccc     C6   3610 0.526324  12.010000   ; qtot 1.333661
 3611          o    123    ccc     O1   3611 -0.39142825  16.000000   ; qtot 0.637155
 3612         oh    123    ccc     O2   3612 -0.56822625  16.000000   ; qtot -0.203656
 3613         ho    123    ccc    H11   3613 0.4186155   1.008000   ; qtot 0.322419
 3614         c3    123    ccc     C7   3614 -0.01321200  12.010000   ; qtot 0.309207
 3615         h1    123    ccc    H12   3615 0.08172200   1.008000   ; qtot 0.390929
 3616         h1    123    ccc    H13   3616 0.08172200   1.008000   ; qtot 0.472651
 3617         c3    123    ccc     C8   3617 -0.22180000  12.010000   ; qtot 0.250851
 3618         hc    123    ccc    H14   3618 0.09671800   1.008000   ; qtot 0.347569
 3619         hc    123    ccc    H15   3619 0.09671800   1.008000   ; qtot 0.444287
 3620          c    123    ccc     C9   3620 0.526324  12.010000   ; qtot 1.440814
 3621          o    123    ccc     O3   3621 -0.39142825  16.000000   ; qtot 0.744308
 3622         oh    123    ccc     O4   3622 -0.56822625  16.000000   ; qtot -0.096503
 3623         ho    123    ccc    H16   3623 0.4186155   1.008000   ; qtot 0.429572
 3624         os    123    ccc     O5   3624 -0.42966500  16.000000   ; qtot -0.000093
; residue  124 ccc rtp ccc q 0.0
 3625         c3    124    ccc     C1   3625 0.50749700  12.010000   ; qtot 0.507404
 3626         h1    124    ccc     H1   3626 -0.02808400   1.008000   ; qtot 0.479320
 3627         h1    124    ccc     H2   3627 -0.02808400   1.008000   ; qtot 0.451236
 3628         c3    124    ccc     C2   3628 -0.15486000  12.010000   ; qtot 0.296376
 3629         hc    124    ccc     H3   3629 0.10266400   1.008000   ; qtot 0.399040
 3630         hc    124    ccc     H4   3630 0.10266400   1.008000   ; qtot 0.501704
 3631         c3    124    ccc     C3   3631 -0.15693500  12.010000   ; qtot 0.344769
 3632         h1    124    ccc     H5   3632 0.08499200   1.008000   ; qtot 0.429761
 3633         h1    124    ccc     H6   3633 0.08499200   1.008000   ; qtot 0.514753
 3634         n3    124    ccc     N1   3634 -0.29948700  14.010000   ; qtot 0.215266
 3635         c3    124    ccc     C4   3635 -0.01321200  12.010000   ; qtot 0.202054
 3636         h1    124    ccc     H7   3636 0.08172200   1.008000   ; qtot 0.283776
 3637         h1    124    ccc     H8   3637 0.08172200   1.008000   ; qtot 0.365498
 3638         c3    124    ccc     C5   3638 -0.22180000  12.010000   ; qtot 0.143698
 3639         hc    124    ccc     H9   3639 0.09671800   1.008000   ; qtot 0.240416
 3640         hc    124    ccc    H10   3640 0.09671800   1.008000   ; qtot 0.337134
 3641          c    124    ccc     C6   3641 0.526324  12.010000   ; qtot 1.333661
 3642          o    124    ccc     O1   3642 -0.39142825  16.000000   ; qtot 0.637155
 3643         oh    124    ccc     O2   3643 -0.56822625  16.000000   ; qtot -0.203656
 3644         ho    124    ccc    H11   3644 0.4186155   1.008000   ; qtot 0.322419
 3645         c3    124    ccc     C7   3645 -0.01321200  12.010000   ; qtot 0.309207
 3646         h1    124    ccc    H12   3646 0.08172200   1.008000   ; qtot 0.390929
 3647         h1    124    ccc    H13   3647 0.08172200   1.008000   ; qtot 0.472651
 3648         c3    124    ccc     C8   3648 -0.22180000  12.010000   ; qtot 0.250851
 3649         hc    124    ccc    H14   3649 0.09671800   1.008000   ; qtot 0.347569
 3650         hc    124    ccc    H15   3650 0.09671800   1.008000   ; qtot 0.444287
 3651          c    124    ccc     C9   3651 0.526324  12.010000   ; qtot 1.440814
 3652          o    124    ccc     O3   3652 -0.39142825  16.000000   ; qtot 0.744308
 3653         oh    124    ccc     O4   3653 -0.56822625  16.000000   ; qtot -0.096503
 3654         ho    124    ccc    H16   3654 0.4186155   1.008000   ; qtot 0.429572
 3655         os    124    ccc     O5   3655 -0.42966500  16.000000   ; qtot -0.000093
; residue  125 ccc rtp ccc q 0.0
 3656         c3    125    ccc     C1   3656 0.50749700  12.010000   ; qtot 0.507404
 3657         h1    125    ccc     H1   3657 -0.02808400   1.008000   ; qtot 0.479320
 3658         h1    125    ccc     H2   3658 -0.02808400   1.008000   ; qtot 0.451236
 3659         c3    125    ccc     C2   3659 -0.15486000  12.010000   ; qtot 0.296376
 3660         hc    125    ccc     H3   3660 0.10266400   1.008000   ; qtot 0.399040
 3661         hc    125    ccc     H4   3661 0.10266400   1.008000   ; qtot 0.501704
 3662         c3    125    ccc     C3   3662 -0.15693500  12.010000   ; qtot 0.344769
 3663         h1    125    ccc     H5   3663 0.08499200   1.008000   ; qtot 0.429761
 3664         h1    125    ccc     H6   3664 0.08499200   1.008000   ; qtot 0.514753
 3665         n3    125    ccc     N1   3665 -0.29948700  14.010000   ; qtot 0.215266
 3666         c3    125    ccc     C4   3666 -0.01321200  12.010000   ; qtot 0.202054
 3667         h1    125    ccc     H7   3667 0.08172200   1.008000   ; qtot 0.283776
 3668         h1    125    ccc     H8   3668 0.08172200   1.008000   ; qtot 0.365498
 3669         c3    125    ccc     C5   3669 -0.22180000  12.010000   ; qtot 0.143698
 3670         hc    125    ccc     H9   3670 0.09671800   1.008000   ; qtot 0.240416
 3671         hc    125    ccc    H10   3671 0.09671800   1.008000   ; qtot 0.337134
 3672          c    125    ccc     C6   3672 0.526324  12.010000   ; qtot 1.333661
 3673          o    125    ccc     O1   3673 -0.39142825  16.000000   ; qtot 0.637155
 3674         oh    125    ccc     O2   3674 -0.56822625  16.000000   ; qtot -0.203656
 3675         ho    125    ccc    H11   3675 0.4186155   1.008000   ; qtot 0.322419
 3676         c3    125    ccc     C7   3676 -0.01321200  12.010000   ; qtot 0.309207
 3677         h1    125    ccc    H12   3677 0.08172200   1.008000   ; qtot 0.390929
 3678         h1    125    ccc    H13   3678 0.08172200   1.008000   ; qtot 0.472651
 3679         c3    125    ccc     C8   3679 -0.22180000  12.010000   ; qtot 0.250851
 3680         hc    125    ccc    H14   3680 0.09671800   1.008000   ; qtot 0.347569
 3681         hc    125    ccc    H15   3681 0.09671800   1.008000   ; qtot 0.444287
 3682          c    125    ccc     C9   3682 0.526324  12.010000   ; qtot 1.440814
 3683          o    125    ccc     O3   3683 -0.39142825  16.000000   ; qtot 0.744308
 3684         oh    125    ccc     O4   3684 -0.56822625  16.000000   ; qtot -0.096503
 3685         ho    125    ccc    H16   3685 0.4186155   1.008000   ; qtot 0.429572
 3686         os    125    ccc     O5   3686 -0.42966500  16.000000   ; qtot -0.000093
; residue  126 ccc rtp ccc q 0.0
 3687         c3    126    ccc     C1   3687 0.50749700  12.010000   ; qtot 0.507404
 3688         h1    126    ccc     H1   3688 -0.02808400   1.008000   ; qtot 0.479320
 3689         h1    126    ccc     H2   3689 -0.02808400   1.008000   ; qtot 0.451236
 3690         c3    126    ccc     C2   3690 -0.15486000  12.010000   ; qtot 0.296376
 3691         hc    126    ccc     H3   3691 0.10266400   1.008000   ; qtot 0.399040
 3692         hc    126    ccc     H4   3692 0.10266400   1.008000   ; qtot 0.501704
 3693         c3    126    ccc     C3   3693 -0.15693500  12.010000   ; qtot 0.344769
 3694         h1    126    ccc     H5   3694 0.08499200   1.008000   ; qtot 0.429761
 3695         h1    126    ccc     H6   3695 0.08499200   1.008000   ; qtot 0.514753
 3696         n3    126    ccc     N1   3696 -0.29948700  14.010000   ; qtot 0.215266
 3697         c3    126    ccc     C4   3697 -0.01321200  12.010000   ; qtot 0.202054
 3698         h1    126    ccc     H7   3698 0.08172200   1.008000   ; qtot 0.283776
 3699         h1    126    ccc     H8   3699 0.08172200   1.008000   ; qtot 0.365498
 3700         c3    126    ccc     C5   3700 -0.22180000  12.010000   ; qtot 0.143698
 3701         hc    126    ccc     H9   3701 0.09671800   1.008000   ; qtot 0.240416
 3702         hc    126    ccc    H10   3702 0.09671800   1.008000   ; qtot 0.337134
 3703          c    126    ccc     C6   3703 0.526324  12.010000   ; qtot 1.333661
 3704          o    126    ccc     O1   3704 -0.39142825  16.000000   ; qtot 0.637155
 3705         oh    126    ccc     O2   3705 -0.56822625  16.000000   ; qtot -0.203656
 3706         ho    126    ccc    H11   3706 0.4186155   1.008000   ; qtot 0.322419
 3707         c3    126    ccc     C7   3707 -0.01321200  12.010000   ; qtot 0.309207
 3708         h1    126    ccc    H12   3708 0.08172200   1.008000   ; qtot 0.390929
 3709         h1    126    ccc    H13   3709 0.08172200   1.008000   ; qtot 0.472651
 3710         c3    126    ccc     C8   3710 -0.22180000  12.010000   ; qtot 0.250851
 3711         hc    126    ccc    H14   3711 0.09671800   1.008000   ; qtot 0.347569
 3712         hc    126    ccc    H15   3712 0.09671800   1.008000   ; qtot 0.444287
 3713          c    126    ccc     C9   3713 0.526324  12.010000   ; qtot 1.440814
 3714          o    126    ccc     O3   3714 -0.39142825  16.000000   ; qtot 0.744308
 3715         oh    126    ccc     O4   3715 -0.56822625  16.000000   ; qtot -0.096503
 3716         ho    126    ccc    H16   3716 0.4186155   1.008000   ; qtot 0.429572
 3717         os    126    ccc     O5   3717 -0.42966500  16.000000   ; qtot -0.000093
; residue  127 ccc rtp ccc q 0.0
 3718         c3    127    ccc     C1   3718 0.50749700  12.010000   ; qtot 0.507404
 3719         h1    127    ccc     H1   3719 -0.02808400   1.008000   ; qtot 0.479320
 3720         h1    127    ccc     H2   3720 -0.02808400   1.008000   ; qtot 0.451236
 3721         c3    127    ccc     C2   3721 -0.15486000  12.010000   ; qtot 0.296376
 3722         hc    127    ccc     H3   3722 0.10266400   1.008000   ; qtot 0.399040
 3723         hc    127    ccc     H4   3723 0.10266400   1.008000   ; qtot 0.501704
 3724         c3    127    ccc     C3   3724 -0.15693500  12.010000   ; qtot 0.344769
 3725         h1    127    ccc     H5   3725 0.08499200   1.008000   ; qtot 0.429761
 3726         h1    127    ccc     H6   3726 0.08499200   1.008000   ; qtot 0.514753
 3727         n3    127    ccc     N1   3727 -0.29948700  14.010000   ; qtot 0.215266
 3728         c3    127    ccc     C4   3728 -0.01321200  12.010000   ; qtot 0.202054
 3729         h1    127    ccc     H7   3729 0.08172200   1.008000   ; qtot 0.283776
 3730         h1    127    ccc     H8   3730 0.08172200   1.008000   ; qtot 0.365498
 3731         c3    127    ccc     C5   3731 -0.22180000  12.010000   ; qtot 0.143698
 3732         hc    127    ccc     H9   3732 0.09671800   1.008000   ; qtot 0.240416
 3733         hc    127    ccc    H10   3733 0.09671800   1.008000   ; qtot 0.337134
 3734          c    127    ccc     C6   3734 0.526324  12.010000   ; qtot 1.333661
 3735          o    127    ccc     O1   3735 -0.39142825  16.000000   ; qtot 0.637155
 3736         oh    127    ccc     O2   3736 -0.56822625  16.000000   ; qtot -0.203656
 3737         ho    127    ccc    H11   3737 0.4186155   1.008000   ; qtot 0.322419
 3738         c3    127    ccc     C7   3738 -0.01321200  12.010000   ; qtot 0.309207
 3739         h1    127    ccc    H12   3739 0.08172200   1.008000   ; qtot 0.390929
 3740         h1    127    ccc    H13   3740 0.08172200   1.008000   ; qtot 0.472651
 3741         c3    127    ccc     C8   3741 -0.22180000  12.010000   ; qtot 0.250851
 3742         hc    127    ccc    H14   3742 0.09671800   1.008000   ; qtot 0.347569
 3743         hc    127    ccc    H15   3743 0.09671800   1.008000   ; qtot 0.444287
 3744          c    127    ccc     C9   3744 0.526324  12.010000   ; qtot 1.440814
 3745          o    127    ccc     O3   3745 -0.39142825  16.000000   ; qtot 0.744308
 3746         oh    127    ccc     O4   3746 -0.56822625  16.000000   ; qtot -0.096503
 3747         ho    127    ccc    H16   3747 0.4186155   1.008000   ; qtot 0.429572
 3748         os    127    ccc     O5   3748 -0.42966500  16.000000   ; qtot -0.000093
; residue  128 ccc rtp ccc q 0.0
 3749         c3    128    ccc     C1   3749 0.50749700  12.010000   ; qtot 0.507404
 3750         h1    128    ccc     H1   3750 -0.02808400   1.008000   ; qtot 0.479320
 3751         h1    128    ccc     H2   3751 -0.02808400   1.008000   ; qtot 0.451236
 3752         c3    128    ccc     C2   3752 -0.15486000  12.010000   ; qtot 0.296376
 3753         hc    128    ccc     H3   3753 0.10266400   1.008000   ; qtot 0.399040
 3754         hc    128    ccc     H4   3754 0.10266400   1.008000   ; qtot 0.501704
 3755         c3    128    ccc     C3   3755 -0.15693500  12.010000   ; qtot 0.344769
 3756         h1    128    ccc     H5   3756 0.08499200   1.008000   ; qtot 0.429761
 3757         h1    128    ccc     H6   3757 0.08499200   1.008000   ; qtot 0.514753
 3758         n3    128    ccc     N1   3758 -0.29948700  14.010000   ; qtot 0.215266
 3759         c3    128    ccc     C4   3759 -0.01321200  12.010000   ; qtot 0.202054
 3760         h1    128    ccc     H7   3760 0.08172200   1.008000   ; qtot 0.283776
 3761         h1    128    ccc     H8   3761 0.08172200   1.008000   ; qtot 0.365498
 3762         c3    128    ccc     C5   3762 -0.22180000  12.010000   ; qtot 0.143698
 3763         hc    128    ccc     H9   3763 0.09671800   1.008000   ; qtot 0.240416
 3764         hc    128    ccc    H10   3764 0.09671800   1.008000   ; qtot 0.337134
 3765          c    128    ccc     C6   3765 0.526324  12.010000   ; qtot 1.333661
 3766          o    128    ccc     O1   3766 -0.39142825  16.000000   ; qtot 0.637155
 3767         oh    128    ccc     O2   3767 -0.56822625  16.000000   ; qtot -0.203656
 3768         ho    128    ccc    H11   3768 0.4186155   1.008000   ; qtot 0.322419
 3769         c3    128    ccc     C7   3769 -0.01321200  12.010000   ; qtot 0.309207
 3770         h1    128    ccc    H12   3770 0.08172200   1.008000   ; qtot 0.390929
 3771         h1    128    ccc    H13   3771 0.08172200   1.008000   ; qtot 0.472651
 3772         c3    128    ccc     C8   3772 -0.22180000  12.010000   ; qtot 0.250851
 3773         hc    128    ccc    H14   3773 0.09671800   1.008000   ; qtot 0.347569
 3774         hc    128    ccc    H15   3774 0.09671800   1.008000   ; qtot 0.444287
 3775          c    128    ccc     C9   3775 0.526324  12.010000   ; qtot 1.440814
 3776          o    128    ccc     O3   3776 -0.39142825  16.000000   ; qtot 0.744308
 3777         oh    128    ccc     O4   3777 -0.56822625  16.000000   ; qtot -0.096503
 3778         ho    128    ccc    H16   3778 0.4186155   1.008000   ; qtot 0.429572
 3779         os    128    ccc     O5   3779 -0.42966500  16.000000   ; qtot -0.000093
; residue  129 ccc rtp ccc q 0.0
 3780         c3    129    ccc     C1   3780 0.50749700  12.010000   ; qtot 0.507404
 3781         h1    129    ccc     H1   3781 -0.02808400   1.008000   ; qtot 0.479320
 3782         h1    129    ccc     H2   3782 -0.02808400   1.008000   ; qtot 0.451236
 3783         c3    129    ccc     C2   3783 -0.15486000  12.010000   ; qtot 0.296376
 3784         hc    129    ccc     H3   3784 0.10266400   1.008000   ; qtot 0.399040
 3785         hc    129    ccc     H4   3785 0.10266400   1.008000   ; qtot 0.501704
 3786         c3    129    ccc     C3   3786 -0.15693500  12.010000   ; qtot 0.344769
 3787         h1    129    ccc     H5   3787 0.08499200   1.008000   ; qtot 0.429761
 3788         h1    129    ccc     H6   3788 0.08499200   1.008000   ; qtot 0.514753
 3789         n3    129    ccc     N1   3789 -0.29948700  14.010000   ; qtot 0.215266
 3790         c3    129    ccc     C4   3790 -0.01321200  12.010000   ; qtot 0.202054
 3791         h1    129    ccc     H7   3791 0.08172200   1.008000   ; qtot 0.283776
 3792         h1    129    ccc     H8   3792 0.08172200   1.008000   ; qtot 0.365498
 3793         c3    129    ccc     C5   3793 -0.22180000  12.010000   ; qtot 0.143698
 3794         hc    129    ccc     H9   3794 0.09671800   1.008000   ; qtot 0.240416
 3795         hc    129    ccc    H10   3795 0.09671800   1.008000   ; qtot 0.337134
 3796          c    129    ccc     C6   3796 0.526324  12.010000   ; qtot 1.333661
 3797          o    129    ccc     O1   3797 -0.39142825  16.000000   ; qtot 0.637155
 3798         oh    129    ccc     O2   3798 -0.56822625  16.000000   ; qtot -0.203656
 3799         ho    129    ccc    H11   3799 0.4186155   1.008000   ; qtot 0.322419
 3800         c3    129    ccc     C7   3800 -0.01321200  12.010000   ; qtot 0.309207
 3801         h1    129    ccc    H12   3801 0.08172200   1.008000   ; qtot 0.390929
 3802         h1    129    ccc    H13   3802 0.08172200   1.008000   ; qtot 0.472651
 3803         c3    129    ccc     C8   3803 -0.22180000  12.010000   ; qtot 0.250851
 3804         hc    129    ccc    H14   3804 0.09671800   1.008000   ; qtot 0.347569
 3805         hc    129    ccc    H15   3805 0.09671800   1.008000   ; qtot 0.444287
 3806          c    129    ccc     C9   3806 0.526324  12.010000   ; qtot 1.440814
 3807          o    129    ccc     O3   3807 -0.39142825  16.000000   ; qtot 0.744308
 3808         oh    129    ccc     O4   3808 -0.56822625  16.000000   ; qtot -0.096503
 3809         ho    129    ccc    H16   3809 0.4186155   1.008000   ; qtot 0.429572
 3810         os    129    ccc     O5   3810 -0.42966500  16.000000   ; qtot -0.000093
; residue  130 ccc rtp ccc q 0.0
 3811         c3    130    ccc     C1   3811 0.50749700  12.010000   ; qtot 0.507404
 3812         h1    130    ccc     H1   3812 -0.02808400   1.008000   ; qtot 0.479320
 3813         h1    130    ccc     H2   3813 -0.02808400   1.008000   ; qtot 0.451236
 3814         c3    130    ccc     C2   3814 -0.15486000  12.010000   ; qtot 0.296376
 3815         hc    130    ccc     H3   3815 0.10266400   1.008000   ; qtot 0.399040
 3816         hc    130    ccc     H4   3816 0.10266400   1.008000   ; qtot 0.501704
 3817         c3    130    ccc     C3   3817 -0.15693500  12.010000   ; qtot 0.344769
 3818         h1    130    ccc     H5   3818 0.08499200   1.008000   ; qtot 0.429761
 3819         h1    130    ccc     H6   3819 0.08499200   1.008000   ; qtot 0.514753
 3820         n3    130    ccc     N1   3820 -0.29948700  14.010000   ; qtot 0.215266
 3821         c3    130    ccc     C4   3821 -0.01321200  12.010000   ; qtot 0.202054
 3822         h1    130    ccc     H7   3822 0.08172200   1.008000   ; qtot 0.283776
 3823         h1    130    ccc     H8   3823 0.08172200   1.008000   ; qtot 0.365498
 3824         c3    130    ccc     C5   3824 -0.22180000  12.010000   ; qtot 0.143698
 3825         hc    130    ccc     H9   3825 0.09671800   1.008000   ; qtot 0.240416
 3826         hc    130    ccc    H10   3826 0.09671800   1.008000   ; qtot 0.337134
 3827          c    130    ccc     C6   3827 0.526324  12.010000   ; qtot 1.333661
 3828          o    130    ccc     O1   3828 -0.39142825  16.000000   ; qtot 0.637155
 3829         oh    130    ccc     O2   3829 -0.56822625  16.000000   ; qtot -0.203656
 3830         ho    130    ccc    H11   3830 0.4186155   1.008000   ; qtot 0.322419
 3831         c3    130    ccc     C7   3831 -0.01321200  12.010000   ; qtot 0.309207
 3832         h1    130    ccc    H12   3832 0.08172200   1.008000   ; qtot 0.390929
 3833         h1    130    ccc    H13   3833 0.08172200   1.008000   ; qtot 0.472651
 3834         c3    130    ccc     C8   3834 -0.22180000  12.010000   ; qtot 0.250851
 3835         hc    130    ccc    H14   3835 0.09671800   1.008000   ; qtot 0.347569
 3836         hc    130    ccc    H15   3836 0.09671800   1.008000   ; qtot 0.444287
 3837          c    130    ccc     C9   3837 0.526324  12.010000   ; qtot 1.440814
 3838          o    130    ccc     O3   3838 -0.39142825  16.000000   ; qtot 0.744308
 3839         oh    130    ccc     O4   3839 -0.56822625  16.000000   ; qtot -0.096503
 3840         ho    130    ccc    H16   3840 0.4186155   1.008000   ; qtot 0.429572
 3841         os    130    ccc     O5   3841 -0.42966500  16.000000   ; qtot -0.000093
; residue  131 ccc rtp ccc q 0.0
 3842         c3    131    ccc     C1   3842 0.50749700  12.010000   ; qtot 0.507404
 3843         h1    131    ccc     H1   3843 -0.02808400   1.008000   ; qtot 0.479320
 3844         h1    131    ccc     H2   3844 -0.02808400   1.008000   ; qtot 0.451236
 3845         c3    131    ccc     C2   3845 -0.15486000  12.010000   ; qtot 0.296376
 3846         hc    131    ccc     H3   3846 0.10266400   1.008000   ; qtot 0.399040
 3847         hc    131    ccc     H4   3847 0.10266400   1.008000   ; qtot 0.501704
 3848         c3    131    ccc     C3   3848 -0.15693500  12.010000   ; qtot 0.344769
 3849         h1    131    ccc     H5   3849 0.08499200   1.008000   ; qtot 0.429761
 3850         h1    131    ccc     H6   3850 0.08499200   1.008000   ; qtot 0.514753
 3851         n3    131    ccc     N1   3851 -0.29948700  14.010000   ; qtot 0.215266
 3852         c3    131    ccc     C4   3852 -0.01321200  12.010000   ; qtot 0.202054
 3853         h1    131    ccc     H7   3853 0.08172200   1.008000   ; qtot 0.283776
 3854         h1    131    ccc     H8   3854 0.08172200   1.008000   ; qtot 0.365498
 3855         c3    131    ccc     C5   3855 -0.22180000  12.010000   ; qtot 0.143698
 3856         hc    131    ccc     H9   3856 0.09671800   1.008000   ; qtot 0.240416
 3857         hc    131    ccc    H10   3857 0.09671800   1.008000   ; qtot 0.337134
 3858          c    131    ccc     C6   3858 0.526324  12.010000   ; qtot 1.333661
 3859          o    131    ccc     O1   3859 -0.39142825  16.000000   ; qtot 0.637155
 3860         oh    131    ccc     O2   3860 -0.56822625  16.000000   ; qtot -0.203656
 3861         ho    131    ccc    H11   3861 0.4186155   1.008000   ; qtot 0.322419
 3862         c3    131    ccc     C7   3862 -0.01321200  12.010000   ; qtot 0.309207
 3863         h1    131    ccc    H12   3863 0.08172200   1.008000   ; qtot 0.390929
 3864         h1    131    ccc    H13   3864 0.08172200   1.008000   ; qtot 0.472651
 3865         c3    131    ccc     C8   3865 -0.22180000  12.010000   ; qtot 0.250851
 3866         hc    131    ccc    H14   3866 0.09671800   1.008000   ; qtot 0.347569
 3867         hc    131    ccc    H15   3867 0.09671800   1.008000   ; qtot 0.444287
 3868          c    131    ccc     C9   3868 0.526324  12.010000   ; qtot 1.440814
 3869          o    131    ccc     O3   3869 -0.39142825  16.000000   ; qtot 0.744308
 3870         oh    131    ccc     O4   3870 -0.56822625  16.000000   ; qtot -0.096503
 3871         ho    131    ccc    H16   3871 0.4186155   1.008000   ; qtot 0.429572
 3872         os    131    ccc     O5   3872 -0.42966500  16.000000   ; qtot -0.000093
; residue  132 ccc rtp ccc q 0.0
 3873         c3    132    ccc     C1   3873 0.50749700  12.010000   ; qtot 0.507404
 3874         h1    132    ccc     H1   3874 -0.02808400   1.008000   ; qtot 0.479320
 3875         h1    132    ccc     H2   3875 -0.02808400   1.008000   ; qtot 0.451236
 3876         c3    132    ccc     C2   3876 -0.15486000  12.010000   ; qtot 0.296376
 3877         hc    132    ccc     H3   3877 0.10266400   1.008000   ; qtot 0.399040
 3878         hc    132    ccc     H4   3878 0.10266400   1.008000   ; qtot 0.501704
 3879         c3    132    ccc     C3   3879 -0.15693500  12.010000   ; qtot 0.344769
 3880         h1    132    ccc     H5   3880 0.08499200   1.008000   ; qtot 0.429761
 3881         h1    132    ccc     H6   3881 0.08499200   1.008000   ; qtot 0.514753
 3882         n3    132    ccc     N1   3882 -0.29948700  14.010000   ; qtot 0.215266
 3883         c3    132    ccc     C4   3883 -0.01321200  12.010000   ; qtot 0.202054
 3884         h1    132    ccc     H7   3884 0.08172200   1.008000   ; qtot 0.283776
 3885         h1    132    ccc     H8   3885 0.08172200   1.008000   ; qtot 0.365498
 3886         c3    132    ccc     C5   3886 -0.22180000  12.010000   ; qtot 0.143698
 3887         hc    132    ccc     H9   3887 0.09671800   1.008000   ; qtot 0.240416
 3888         hc    132    ccc    H10   3888 0.09671800   1.008000   ; qtot 0.337134
 3889          c    132    ccc     C6   3889 0.526324  12.010000   ; qtot 1.333661
 3890          o    132    ccc     O1   3890 -0.39142825  16.000000   ; qtot 0.637155
 3891         oh    132    ccc     O2   3891 -0.56822625  16.000000   ; qtot -0.203656
 3892         ho    132    ccc    H11   3892 0.4186155   1.008000   ; qtot 0.322419
 3893         c3    132    ccc     C7   3893 -0.01321200  12.010000   ; qtot 0.309207
 3894         h1    132    ccc    H12   3894 0.08172200   1.008000   ; qtot 0.390929
 3895         h1    132    ccc    H13   3895 0.08172200   1.008000   ; qtot 0.472651
 3896         c3    132    ccc     C8   3896 -0.22180000  12.010000   ; qtot 0.250851
 3897         hc    132    ccc    H14   3897 0.09671800   1.008000   ; qtot 0.347569
 3898         hc    132    ccc    H15   3898 0.09671800   1.008000   ; qtot 0.444287
 3899          c    132    ccc     C9   3899 0.526324  12.010000   ; qtot 1.440814
 3900          o    132    ccc     O3   3900 -0.39142825  16.000000   ; qtot 0.744308
 3901         oh    132    ccc     O4   3901 -0.56822625  16.000000   ; qtot -0.096503
 3902         ho    132    ccc    H16   3902 0.4186155   1.008000   ; qtot 0.429572
 3903         os    132    ccc     O5   3903 -0.42966500  16.000000   ; qtot -0.000093
; residue  133 ccc rtp ccc q 0.0
 3904         c3    133    ccc     C1   3904 0.50749700  12.010000   ; qtot 0.507404
 3905         h1    133    ccc     H1   3905 -0.02808400   1.008000   ; qtot 0.479320
 3906         h1    133    ccc     H2   3906 -0.02808400   1.008000   ; qtot 0.451236
 3907         c3    133    ccc     C2   3907 -0.15486000  12.010000   ; qtot 0.296376
 3908         hc    133    ccc     H3   3908 0.10266400   1.008000   ; qtot 0.399040
 3909         hc    133    ccc     H4   3909 0.10266400   1.008000   ; qtot 0.501704
 3910         c3    133    ccc     C3   3910 -0.15693500  12.010000   ; qtot 0.344769
 3911         h1    133    ccc     H5   3911 0.08499200   1.008000   ; qtot 0.429761
 3912         h1    133    ccc     H6   3912 0.08499200   1.008000   ; qtot 0.514753
 3913         n3    133    ccc     N1   3913 -0.29948700  14.010000   ; qtot 0.215266
 3914         c3    133    ccc     C4   3914 -0.01321200  12.010000   ; qtot 0.202054
 3915         h1    133    ccc     H7   3915 0.08172200   1.008000   ; qtot 0.283776
 3916         h1    133    ccc     H8   3916 0.08172200   1.008000   ; qtot 0.365498
 3917         c3    133    ccc     C5   3917 -0.22180000  12.010000   ; qtot 0.143698
 3918         hc    133    ccc     H9   3918 0.09671800   1.008000   ; qtot 0.240416
 3919         hc    133    ccc    H10   3919 0.09671800   1.008000   ; qtot 0.337134
 3920          c    133    ccc     C6   3920 0.526324  12.010000   ; qtot 1.333661
 3921          o    133    ccc     O1   3921 -0.39142825  16.000000   ; qtot 0.637155
 3922         oh    133    ccc     O2   3922 -0.56822625  16.000000   ; qtot -0.203656
 3923         ho    133    ccc    H11   3923 0.4186155   1.008000   ; qtot 0.322419
 3924         c3    133    ccc     C7   3924 -0.01321200  12.010000   ; qtot 0.309207
 3925         h1    133    ccc    H12   3925 0.08172200   1.008000   ; qtot 0.390929
 3926         h1    133    ccc    H13   3926 0.08172200   1.008000   ; qtot 0.472651
 3927         c3    133    ccc     C8   3927 -0.22180000  12.010000   ; qtot 0.250851
 3928         hc    133    ccc    H14   3928 0.09671800   1.008000   ; qtot 0.347569
 3929         hc    133    ccc    H15   3929 0.09671800   1.008000   ; qtot 0.444287
 3930          c    133    ccc     C9   3930 0.526324  12.010000   ; qtot 1.440814
 3931          o    133    ccc     O3   3931 -0.39142825  16.000000   ; qtot 0.744308
 3932         oh    133    ccc     O4   3932 -0.56822625  16.000000   ; qtot -0.096503
 3933         ho    133    ccc    H16   3933 0.4186155   1.008000   ; qtot 0.429572
 3934         os    133    ccc     O5   3934 -0.42966500  16.000000   ; qtot -0.000093
; residue  134 ccc rtp ccc q 0.0
 3935         c3    134    ccc     C1   3935 0.50749700  12.010000   ; qtot 0.507404
 3936         h1    134    ccc     H1   3936 -0.02808400   1.008000   ; qtot 0.479320
 3937         h1    134    ccc     H2   3937 -0.02808400   1.008000   ; qtot 0.451236
 3938         c3    134    ccc     C2   3938 -0.15486000  12.010000   ; qtot 0.296376
 3939         hc    134    ccc     H3   3939 0.10266400   1.008000   ; qtot 0.399040
 3940         hc    134    ccc     H4   3940 0.10266400   1.008000   ; qtot 0.501704
 3941         c3    134    ccc     C3   3941 -0.15693500  12.010000   ; qtot 0.344769
 3942         h1    134    ccc     H5   3942 0.08499200   1.008000   ; qtot 0.429761
 3943         h1    134    ccc     H6   3943 0.08499200   1.008000   ; qtot 0.514753
 3944         n3    134    ccc     N1   3944 -0.29948700  14.010000   ; qtot 0.215266
 3945         c3    134    ccc     C4   3945 -0.01321200  12.010000   ; qtot 0.202054
 3946         h1    134    ccc     H7   3946 0.08172200   1.008000   ; qtot 0.283776
 3947         h1    134    ccc     H8   3947 0.08172200   1.008000   ; qtot 0.365498
 3948         c3    134    ccc     C5   3948 -0.22180000  12.010000   ; qtot 0.143698
 3949         hc    134    ccc     H9   3949 0.09671800   1.008000   ; qtot 0.240416
 3950         hc    134    ccc    H10   3950 0.09671800   1.008000   ; qtot 0.337134
 3951          c    134    ccc     C6   3951 0.526324  12.010000   ; qtot 1.333661
 3952          o    134    ccc     O1   3952 -0.39142825  16.000000   ; qtot 0.637155
 3953         oh    134    ccc     O2   3953 -0.56822625  16.000000   ; qtot -0.203656
 3954         ho    134    ccc    H11   3954 0.4186155   1.008000   ; qtot 0.322419
 3955         c3    134    ccc     C7   3955 -0.01321200  12.010000   ; qtot 0.309207
 3956         h1    134    ccc    H12   3956 0.08172200   1.008000   ; qtot 0.390929
 3957         h1    134    ccc    H13   3957 0.08172200   1.008000   ; qtot 0.472651
 3958         c3    134    ccc     C8   3958 -0.22180000  12.010000   ; qtot 0.250851
 3959         hc    134    ccc    H14   3959 0.09671800   1.008000   ; qtot 0.347569
 3960         hc    134    ccc    H15   3960 0.09671800   1.008000   ; qtot 0.444287
 3961          c    134    ccc     C9   3961 0.526324  12.010000   ; qtot 1.440814
 3962          o    134    ccc     O3   3962 -0.39142825  16.000000   ; qtot 0.744308
 3963         oh    134    ccc     O4   3963 -0.56822625  16.000000   ; qtot -0.096503
 3964         ho    134    ccc    H16   3964 0.4186155   1.008000   ; qtot 0.429572
 3965         os    134    ccc     O5   3965 -0.42966500  16.000000   ; qtot -0.000093
; residue  135 ccc rtp ccc q 0.0
 3966         c3    135    ccc     C1   3966 0.50749700  12.010000   ; qtot 0.507404
 3967         h1    135    ccc     H1   3967 -0.02808400   1.008000   ; qtot 0.479320
 3968         h1    135    ccc     H2   3968 -0.02808400   1.008000   ; qtot 0.451236
 3969         c3    135    ccc     C2   3969 -0.15486000  12.010000   ; qtot 0.296376
 3970         hc    135    ccc     H3   3970 0.10266400   1.008000   ; qtot 0.399040
 3971         hc    135    ccc     H4   3971 0.10266400   1.008000   ; qtot 0.501704
 3972         c3    135    ccc     C3   3972 -0.15693500  12.010000   ; qtot 0.344769
 3973         h1    135    ccc     H5   3973 0.08499200   1.008000   ; qtot 0.429761
 3974         h1    135    ccc     H6   3974 0.08499200   1.008000   ; qtot 0.514753
 3975         n3    135    ccc     N1   3975 -0.29948700  14.010000   ; qtot 0.215266
 3976         c3    135    ccc     C4   3976 -0.01321200  12.010000   ; qtot 0.202054
 3977         h1    135    ccc     H7   3977 0.08172200   1.008000   ; qtot 0.283776
 3978         h1    135    ccc     H8   3978 0.08172200   1.008000   ; qtot 0.365498
 3979         c3    135    ccc     C5   3979 -0.22180000  12.010000   ; qtot 0.143698
 3980         hc    135    ccc     H9   3980 0.09671800   1.008000   ; qtot 0.240416
 3981         hc    135    ccc    H10   3981 0.09671800   1.008000   ; qtot 0.337134
 3982          c    135    ccc     C6   3982 0.526324  12.010000   ; qtot 1.333661
 3983          o    135    ccc     O1   3983 -0.39142825  16.000000   ; qtot 0.637155
 3984         oh    135    ccc     O2   3984 -0.56822625  16.000000   ; qtot -0.203656
 3985         ho    135    ccc    H11   3985 0.4186155   1.008000   ; qtot 0.322419
 3986         c3    135    ccc     C7   3986 -0.01321200  12.010000   ; qtot 0.309207
 3987         h1    135    ccc    H12   3987 0.08172200   1.008000   ; qtot 0.390929
 3988         h1    135    ccc    H13   3988 0.08172200   1.008000   ; qtot 0.472651
 3989         c3    135    ccc     C8   3989 -0.22180000  12.010000   ; qtot 0.250851
 3990         hc    135    ccc    H14   3990 0.09671800   1.008000   ; qtot 0.347569
 3991         hc    135    ccc    H15   3991 0.09671800   1.008000   ; qtot 0.444287
 3992          c    135    ccc     C9   3992 0.526324  12.010000   ; qtot 1.440814
 3993          o    135    ccc     O3   3993 -0.39142825  16.000000   ; qtot 0.744308
 3994         oh    135    ccc     O4   3994 -0.56822625  16.000000   ; qtot -0.096503
 3995         ho    135    ccc    H16   3995 0.4186155   1.008000   ; qtot 0.429572
 3996         os    135    ccc     O5   3996 -0.42966500  16.000000   ; qtot -0.000093
; residue  136 ccc rtp ccc q 0.0
 3997         c3    136    ccc     C1   3997 0.50749700  12.010000   ; qtot 0.507404
 3998         h1    136    ccc     H1   3998 -0.02808400   1.008000   ; qtot 0.479320
 3999         h1    136    ccc     H2   3999 -0.02808400   1.008000   ; qtot 0.451236
 4000         c3    136    ccc     C2   4000 -0.15486000  12.010000   ; qtot 0.296376
 4001         hc    136    ccc     H3   4001 0.10266400   1.008000   ; qtot 0.399040
 4002         hc    136    ccc     H4   4002 0.10266400   1.008000   ; qtot 0.501704
 4003         c3    136    ccc     C3   4003 -0.15693500  12.010000   ; qtot 0.344769
 4004         h1    136    ccc     H5   4004 0.08499200   1.008000   ; qtot 0.429761
 4005         h1    136    ccc     H6   4005 0.08499200   1.008000   ; qtot 0.514753
 4006         n3    136    ccc     N1   4006 -0.29948700  14.010000   ; qtot 0.215266
 4007         c3    136    ccc     C4   4007 -0.01321200  12.010000   ; qtot 0.202054
 4008         h1    136    ccc     H7   4008 0.08172200   1.008000   ; qtot 0.283776
 4009         h1    136    ccc     H8   4009 0.08172200   1.008000   ; qtot 0.365498
 4010         c3    136    ccc     C5   4010 -0.22180000  12.010000   ; qtot 0.143698
 4011         hc    136    ccc     H9   4011 0.09671800   1.008000   ; qtot 0.240416
 4012         hc    136    ccc    H10   4012 0.09671800   1.008000   ; qtot 0.337134
 4013          c    136    ccc     C6   4013 0.526324  12.010000   ; qtot 1.333661
 4014          o    136    ccc     O1   4014 -0.39142825  16.000000   ; qtot 0.637155
 4015         oh    136    ccc     O2   4015 -0.56822625  16.000000   ; qtot -0.203656
 4016         ho    136    ccc    H11   4016 0.4186155   1.008000   ; qtot 0.322419
 4017         c3    136    ccc     C7   4017 -0.01321200  12.010000   ; qtot 0.309207
 4018         h1    136    ccc    H12   4018 0.08172200   1.008000   ; qtot 0.390929
 4019         h1    136    ccc    H13   4019 0.08172200   1.008000   ; qtot 0.472651
 4020         c3    136    ccc     C8   4020 -0.22180000  12.010000   ; qtot 0.250851
 4021         hc    136    ccc    H14   4021 0.09671800   1.008000   ; qtot 0.347569
 4022         hc    136    ccc    H15   4022 0.09671800   1.008000   ; qtot 0.444287
 4023          c    136    ccc     C9   4023 0.526324  12.010000   ; qtot 1.440814
 4024          o    136    ccc     O3   4024 -0.39142825  16.000000   ; qtot 0.744308
 4025         oh    136    ccc     O4   4025 -0.56822625  16.000000   ; qtot -0.096503
 4026         ho    136    ccc    H16   4026 0.4186155   1.008000   ; qtot 0.429572
 4027         os    136    ccc     O5   4027 -0.42966500  16.000000   ; qtot -0.000093
; residue  137 ccc rtp ccc q 0.0
 4028         c3    137    ccc     C1   4028 0.50749700  12.010000   ; qtot 0.507404
 4029         h1    137    ccc     H1   4029 -0.02808400   1.008000   ; qtot 0.479320
 4030         h1    137    ccc     H2   4030 -0.02808400   1.008000   ; qtot 0.451236
 4031         c3    137    ccc     C2   4031 -0.15486000  12.010000   ; qtot 0.296376
 4032         hc    137    ccc     H3   4032 0.10266400   1.008000   ; qtot 0.399040
 4033         hc    137    ccc     H4   4033 0.10266400   1.008000   ; qtot 0.501704
 4034         c3    137    ccc     C3   4034 -0.15693500  12.010000   ; qtot 0.344769
 4035         h1    137    ccc     H5   4035 0.08499200   1.008000   ; qtot 0.429761
 4036         h1    137    ccc     H6   4036 0.08499200   1.008000   ; qtot 0.514753
 4037         n3    137    ccc     N1   4037 -0.29948700  14.010000   ; qtot 0.215266
 4038         c3    137    ccc     C4   4038 -0.01321200  12.010000   ; qtot 0.202054
 4039         h1    137    ccc     H7   4039 0.08172200   1.008000   ; qtot 0.283776
 4040         h1    137    ccc     H8   4040 0.08172200   1.008000   ; qtot 0.365498
 4041         c3    137    ccc     C5   4041 -0.22180000  12.010000   ; qtot 0.143698
 4042         hc    137    ccc     H9   4042 0.09671800   1.008000   ; qtot 0.240416
 4043         hc    137    ccc    H10   4043 0.09671800   1.008000   ; qtot 0.337134
 4044          c    137    ccc     C6   4044 0.526324  12.010000   ; qtot 1.333661
 4045          o    137    ccc     O1   4045 -0.39142825  16.000000   ; qtot 0.637155
 4046         oh    137    ccc     O2   4046 -0.56822625  16.000000   ; qtot -0.203656
 4047         ho    137    ccc    H11   4047 0.4186155   1.008000   ; qtot 0.322419
 4048         c3    137    ccc     C7   4048 -0.01321200  12.010000   ; qtot 0.309207
 4049         h1    137    ccc    H12   4049 0.08172200   1.008000   ; qtot 0.390929
 4050         h1    137    ccc    H13   4050 0.08172200   1.008000   ; qtot 0.472651
 4051         c3    137    ccc     C8   4051 -0.22180000  12.010000   ; qtot 0.250851
 4052         hc    137    ccc    H14   4052 0.09671800   1.008000   ; qtot 0.347569
 4053         hc    137    ccc    H15   4053 0.09671800   1.008000   ; qtot 0.444287
 4054          c    137    ccc     C9   4054 0.526324  12.010000   ; qtot 1.440814
 4055          o    137    ccc     O3   4055 -0.39142825  16.000000   ; qtot 0.744308
 4056         oh    137    ccc     O4   4056 -0.56822625  16.000000   ; qtot -0.096503
 4057         ho    137    ccc    H16   4057 0.4186155   1.008000   ; qtot 0.429572
 4058         os    137    ccc     O5   4058 -0.42966500  16.000000   ; qtot -0.000093
; residue  138 ccc rtp ccc q 0.0
 4059         c3    138    ccc     C1   4059 0.50749700  12.010000   ; qtot 0.507404
 4060         h1    138    ccc     H1   4060 -0.02808400   1.008000   ; qtot 0.479320
 4061         h1    138    ccc     H2   4061 -0.02808400   1.008000   ; qtot 0.451236
 4062         c3    138    ccc     C2   4062 -0.15486000  12.010000   ; qtot 0.296376
 4063         hc    138    ccc     H3   4063 0.10266400   1.008000   ; qtot 0.399040
 4064         hc    138    ccc     H4   4064 0.10266400   1.008000   ; qtot 0.501704
 4065         c3    138    ccc     C3   4065 -0.15693500  12.010000   ; qtot 0.344769
 4066         h1    138    ccc     H5   4066 0.08499200   1.008000   ; qtot 0.429761
 4067         h1    138    ccc     H6   4067 0.08499200   1.008000   ; qtot 0.514753
 4068         n3    138    ccc     N1   4068 -0.29948700  14.010000   ; qtot 0.215266
 4069         c3    138    ccc     C4   4069 -0.01321200  12.010000   ; qtot 0.202054
 4070         h1    138    ccc     H7   4070 0.08172200   1.008000   ; qtot 0.283776
 4071         h1    138    ccc     H8   4071 0.08172200   1.008000   ; qtot 0.365498
 4072         c3    138    ccc     C5   4072 -0.22180000  12.010000   ; qtot 0.143698
 4073         hc    138    ccc     H9   4073 0.09671800   1.008000   ; qtot 0.240416
 4074         hc    138    ccc    H10   4074 0.09671800   1.008000   ; qtot 0.337134
 4075          c    138    ccc     C6   4075 0.526324  12.010000   ; qtot 1.333661
 4076          o    138    ccc     O1   4076 -0.39142825  16.000000   ; qtot 0.637155
 4077         oh    138    ccc     O2   4077 -0.56822625  16.000000   ; qtot -0.203656
 4078         ho    138    ccc    H11   4078 0.4186155   1.008000   ; qtot 0.322419
 4079         c3    138    ccc     C7   4079 -0.01321200  12.010000   ; qtot 0.309207
 4080         h1    138    ccc    H12   4080 0.08172200   1.008000   ; qtot 0.390929
 4081         h1    138    ccc    H13   4081 0.08172200   1.008000   ; qtot 0.472651
 4082         c3    138    ccc     C8   4082 -0.22180000  12.010000   ; qtot 0.250851
 4083         hc    138    ccc    H14   4083 0.09671800   1.008000   ; qtot 0.347569
 4084         hc    138    ccc    H15   4084 0.09671800   1.008000   ; qtot 0.444287
 4085          c    138    ccc     C9   4085 0.526324  12.010000   ; qtot 1.440814
 4086          o    138    ccc     O3   4086 -0.39142825  16.000000   ; qtot 0.744308
 4087         oh    138    ccc     O4   4087 -0.56822625  16.000000   ; qtot -0.096503
 4088         ho    138    ccc    H16   4088 0.4186155   1.008000   ; qtot 0.429572
 4089         os    138    ccc     O5   4089 -0.42966500  16.000000   ; qtot -0.000093
; residue  139 ccc rtp ccc q 0.0
 4090         c3    139    ccc     C1   4090 0.50749700  12.010000   ; qtot 0.507404
 4091         h1    139    ccc     H1   4091 -0.02808400   1.008000   ; qtot 0.479320
 4092         h1    139    ccc     H2   4092 -0.02808400   1.008000   ; qtot 0.451236
 4093         c3    139    ccc     C2   4093 -0.15486000  12.010000   ; qtot 0.296376
 4094         hc    139    ccc     H3   4094 0.10266400   1.008000   ; qtot 0.399040
 4095         hc    139    ccc     H4   4095 0.10266400   1.008000   ; qtot 0.501704
 4096         c3    139    ccc     C3   4096 -0.15693500  12.010000   ; qtot 0.344769
 4097         h1    139    ccc     H5   4097 0.08499200   1.008000   ; qtot 0.429761
 4098         h1    139    ccc     H6   4098 0.08499200   1.008000   ; qtot 0.514753
 4099         n3    139    ccc     N1   4099 -0.29948700  14.010000   ; qtot 0.215266
 4100         c3    139    ccc     C4   4100 -0.01321200  12.010000   ; qtot 0.202054
 4101         h1    139    ccc     H7   4101 0.08172200   1.008000   ; qtot 0.283776
 4102         h1    139    ccc     H8   4102 0.08172200   1.008000   ; qtot 0.365498
 4103         c3    139    ccc     C5   4103 -0.22180000  12.010000   ; qtot 0.143698
 4104         hc    139    ccc     H9   4104 0.09671800   1.008000   ; qtot 0.240416
 4105         hc    139    ccc    H10   4105 0.09671800   1.008000   ; qtot 0.337134
 4106          c    139    ccc     C6   4106 0.526324  12.010000   ; qtot 1.333661
 4107          o    139    ccc     O1   4107 -0.39142825  16.000000   ; qtot 0.637155
 4108         oh    139    ccc     O2   4108 -0.56822625  16.000000   ; qtot -0.203656
 4109         ho    139    ccc    H11   4109 0.4186155   1.008000   ; qtot 0.322419
 4110         c3    139    ccc     C7   4110 -0.01321200  12.010000   ; qtot 0.309207
 4111         h1    139    ccc    H12   4111 0.08172200   1.008000   ; qtot 0.390929
 4112         h1    139    ccc    H13   4112 0.08172200   1.008000   ; qtot 0.472651
 4113         c3    139    ccc     C8   4113 -0.22180000  12.010000   ; qtot 0.250851
 4114         hc    139    ccc    H14   4114 0.09671800   1.008000   ; qtot 0.347569
 4115         hc    139    ccc    H15   4115 0.09671800   1.008000   ; qtot 0.444287
 4116          c    139    ccc     C9   4116 0.526324  12.010000   ; qtot 1.440814
 4117          o    139    ccc     O3   4117 -0.39142825  16.000000   ; qtot 0.744308
 4118         oh    139    ccc     O4   4118 -0.56822625  16.000000   ; qtot -0.096503
 4119         ho    139    ccc    H16   4119 0.4186155   1.008000   ; qtot 0.429572
 4120         os    139    ccc     O5   4120 -0.42966500  16.000000   ; qtot -0.000093
; residue  140 ccc rtp ccc q 0.0
 4121         c3    140    ccc     C1   4121 0.50749700  12.010000   ; qtot 0.507404
 4122         h1    140    ccc     H1   4122 -0.02808400   1.008000   ; qtot 0.479320
 4123         h1    140    ccc     H2   4123 -0.02808400   1.008000   ; qtot 0.451236
 4124         c3    140    ccc     C2   4124 -0.15486000  12.010000   ; qtot 0.296376
 4125         hc    140    ccc     H3   4125 0.10266400   1.008000   ; qtot 0.399040
 4126         hc    140    ccc     H4   4126 0.10266400   1.008000   ; qtot 0.501704
 4127         c3    140    ccc     C3   4127 -0.15693500  12.010000   ; qtot 0.344769
 4128         h1    140    ccc     H5   4128 0.08499200   1.008000   ; qtot 0.429761
 4129         h1    140    ccc     H6   4129 0.08499200   1.008000   ; qtot 0.514753
 4130         n3    140    ccc     N1   4130 -0.29948700  14.010000   ; qtot 0.215266
 4131         c3    140    ccc     C4   4131 -0.01321200  12.010000   ; qtot 0.202054
 4132         h1    140    ccc     H7   4132 0.08172200   1.008000   ; qtot 0.283776
 4133         h1    140    ccc     H8   4133 0.08172200   1.008000   ; qtot 0.365498
 4134         c3    140    ccc     C5   4134 -0.22180000  12.010000   ; qtot 0.143698
 4135         hc    140    ccc     H9   4135 0.09671800   1.008000   ; qtot 0.240416
 4136         hc    140    ccc    H10   4136 0.09671800   1.008000   ; qtot 0.337134
 4137          c    140    ccc     C6   4137 0.526324  12.010000   ; qtot 1.333661
 4138          o    140    ccc     O1   4138 -0.39142825  16.000000   ; qtot 0.637155
 4139         oh    140    ccc     O2   4139 -0.56822625  16.000000   ; qtot -0.203656
 4140         ho    140    ccc    H11   4140 0.4186155   1.008000   ; qtot 0.322419
 4141         c3    140    ccc     C7   4141 -0.01321200  12.010000   ; qtot 0.309207
 4142         h1    140    ccc    H12   4142 0.08172200   1.008000   ; qtot 0.390929
 4143         h1    140    ccc    H13   4143 0.08172200   1.008000   ; qtot 0.472651
 4144         c3    140    ccc     C8   4144 -0.22180000  12.010000   ; qtot 0.250851
 4145         hc    140    ccc    H14   4145 0.09671800   1.008000   ; qtot 0.347569
 4146         hc    140    ccc    H15   4146 0.09671800   1.008000   ; qtot 0.444287
 4147          c    140    ccc     C9   4147 0.526324  12.010000   ; qtot 1.440814
 4148          o    140    ccc     O3   4148 -0.39142825  16.000000   ; qtot 0.744308
 4149         oh    140    ccc     O4   4149 -0.56822625  16.000000   ; qtot -0.096503
 4150         ho    140    ccc    H16   4150 0.4186155   1.008000   ; qtot 0.429572
 4151         os    140    ccc     O5   4151 -0.42966500  16.000000   ; qtot -0.000093
; residue  141 ccc rtp ccc q 0.0
 4152         c3    141    ccc     C1   4152 0.50749700  12.010000   ; qtot 0.507404
 4153         h1    141    ccc     H1   4153 -0.02808400   1.008000   ; qtot 0.479320
 4154         h1    141    ccc     H2   4154 -0.02808400   1.008000   ; qtot 0.451236
 4155         c3    141    ccc     C2   4155 -0.15486000  12.010000   ; qtot 0.296376
 4156         hc    141    ccc     H3   4156 0.10266400   1.008000   ; qtot 0.399040
 4157         hc    141    ccc     H4   4157 0.10266400   1.008000   ; qtot 0.501704
 4158         c3    141    ccc     C3   4158 -0.15693500  12.010000   ; qtot 0.344769
 4159         h1    141    ccc     H5   4159 0.08499200   1.008000   ; qtot 0.429761
 4160         h1    141    ccc     H6   4160 0.08499200   1.008000   ; qtot 0.514753
 4161         n3    141    ccc     N1   4161 -0.29948700  14.010000   ; qtot 0.215266
 4162         c3    141    ccc     C4   4162 -0.01321200  12.010000   ; qtot 0.202054
 4163         h1    141    ccc     H7   4163 0.08172200   1.008000   ; qtot 0.283776
 4164         h1    141    ccc     H8   4164 0.08172200   1.008000   ; qtot 0.365498
 4165         c3    141    ccc     C5   4165 -0.22180000  12.010000   ; qtot 0.143698
 4166         hc    141    ccc     H9   4166 0.09671800   1.008000   ; qtot 0.240416
 4167         hc    141    ccc    H10   4167 0.09671800   1.008000   ; qtot 0.337134
 4168          c    141    ccc     C6   4168 0.526324  12.010000   ; qtot 1.333661
 4169          o    141    ccc     O1   4169 -0.39142825  16.000000   ; qtot 0.637155
 4170         oh    141    ccc     O2   4170 -0.56822625  16.000000   ; qtot -0.203656
 4171         ho    141    ccc    H11   4171 0.4186155   1.008000   ; qtot 0.322419
 4172         c3    141    ccc     C7   4172 -0.01321200  12.010000   ; qtot 0.309207
 4173         h1    141    ccc    H12   4173 0.08172200   1.008000   ; qtot 0.390929
 4174         h1    141    ccc    H13   4174 0.08172200   1.008000   ; qtot 0.472651
 4175         c3    141    ccc     C8   4175 -0.22180000  12.010000   ; qtot 0.250851
 4176         hc    141    ccc    H14   4176 0.09671800   1.008000   ; qtot 0.347569
 4177         hc    141    ccc    H15   4177 0.09671800   1.008000   ; qtot 0.444287
 4178          c    141    ccc     C9   4178 0.526324  12.010000   ; qtot 1.440814
 4179          o    141    ccc     O3   4179 -0.39142825  16.000000   ; qtot 0.744308
 4180         oh    141    ccc     O4   4180 -0.56822625  16.000000   ; qtot -0.096503
 4181         ho    141    ccc    H16   4181 0.4186155   1.008000   ; qtot 0.429572
 4182         os    141    ccc     O5   4182 -0.42966500  16.000000   ; qtot -0.000093
; residue  142 ccc rtp ccc q 0.0
 4183         c3    142    ccc     C1   4183 0.50749700  12.010000   ; qtot 0.507404
 4184         h1    142    ccc     H1   4184 -0.02808400   1.008000   ; qtot 0.479320
 4185         h1    142    ccc     H2   4185 -0.02808400   1.008000   ; qtot 0.451236
 4186         c3    142    ccc     C2   4186 -0.15486000  12.010000   ; qtot 0.296376
 4187         hc    142    ccc     H3   4187 0.10266400   1.008000   ; qtot 0.399040
 4188         hc    142    ccc     H4   4188 0.10266400   1.008000   ; qtot 0.501704
 4189         c3    142    ccc     C3   4189 -0.15693500  12.010000   ; qtot 0.344769
 4190         h1    142    ccc     H5   4190 0.08499200   1.008000   ; qtot 0.429761
 4191         h1    142    ccc     H6   4191 0.08499200   1.008000   ; qtot 0.514753
 4192         n3    142    ccc     N1   4192 -0.29948700  14.010000   ; qtot 0.215266
 4193         c3    142    ccc     C4   4193 -0.01321200  12.010000   ; qtot 0.202054
 4194         h1    142    ccc     H7   4194 0.08172200   1.008000   ; qtot 0.283776
 4195         h1    142    ccc     H8   4195 0.08172200   1.008000   ; qtot 0.365498
 4196         c3    142    ccc     C5   4196 -0.22180000  12.010000   ; qtot 0.143698
 4197         hc    142    ccc     H9   4197 0.09671800   1.008000   ; qtot 0.240416
 4198         hc    142    ccc    H10   4198 0.09671800   1.008000   ; qtot 0.337134
 4199          c    142    ccc     C6   4199 0.526324  12.010000   ; qtot 1.333661
 4200          o    142    ccc     O1   4200 -0.39142825  16.000000   ; qtot 0.637155
 4201         oh    142    ccc     O2   4201 -0.56822625  16.000000   ; qtot -0.203656
 4202         ho    142    ccc    H11   4202 0.4186155   1.008000   ; qtot 0.322419
 4203         c3    142    ccc     C7   4203 -0.01321200  12.010000   ; qtot 0.309207
 4204         h1    142    ccc    H12   4204 0.08172200   1.008000   ; qtot 0.390929
 4205         h1    142    ccc    H13   4205 0.08172200   1.008000   ; qtot 0.472651
 4206         c3    142    ccc     C8   4206 -0.22180000  12.010000   ; qtot 0.250851
 4207         hc    142    ccc    H14   4207 0.09671800   1.008000   ; qtot 0.347569
 4208         hc    142    ccc    H15   4208 0.09671800   1.008000   ; qtot 0.444287
 4209          c    142    ccc     C9   4209 0.526324  12.010000   ; qtot 1.440814
 4210          o    142    ccc     O3   4210 -0.39142825  16.000000   ; qtot 0.744308
 4211         oh    142    ccc     O4   4211 -0.56822625  16.000000   ; qtot -0.096503
 4212         ho    142    ccc    H16   4212 0.4186155   1.008000   ; qtot 0.429572
 4213         os    142    ccc     O5   4213 -0.42966500  16.000000   ; qtot -0.000093
; residue  143 ccc rtp ccc q 0.0
 4214         c3    143    ccc     C1   4214 0.50749700  12.010000   ; qtot 0.507404
 4215         h1    143    ccc     H1   4215 -0.02808400   1.008000   ; qtot 0.479320
 4216         h1    143    ccc     H2   4216 -0.02808400   1.008000   ; qtot 0.451236
 4217         c3    143    ccc     C2   4217 -0.15486000  12.010000   ; qtot 0.296376
 4218         hc    143    ccc     H3   4218 0.10266400   1.008000   ; qtot 0.399040
 4219         hc    143    ccc     H4   4219 0.10266400   1.008000   ; qtot 0.501704
 4220         c3    143    ccc     C3   4220 -0.15693500  12.010000   ; qtot 0.344769
 4221         h1    143    ccc     H5   4221 0.08499200   1.008000   ; qtot 0.429761
 4222         h1    143    ccc     H6   4222 0.08499200   1.008000   ; qtot 0.514753
 4223         n3    143    ccc     N1   4223 -0.29948700  14.010000   ; qtot 0.215266
 4224         c3    143    ccc     C4   4224 -0.01321200  12.010000   ; qtot 0.202054
 4225         h1    143    ccc     H7   4225 0.08172200   1.008000   ; qtot 0.283776
 4226         h1    143    ccc     H8   4226 0.08172200   1.008000   ; qtot 0.365498
 4227         c3    143    ccc     C5   4227 -0.22180000  12.010000   ; qtot 0.143698
 4228         hc    143    ccc     H9   4228 0.09671800   1.008000   ; qtot 0.240416
 4229         hc    143    ccc    H10   4229 0.09671800   1.008000   ; qtot 0.337134
 4230          c    143    ccc     C6   4230 0.526324  12.010000   ; qtot 1.333661
 4231          o    143    ccc     O1   4231 -0.39142825  16.000000   ; qtot 0.637155
 4232         oh    143    ccc     O2   4232 -0.56822625  16.000000   ; qtot -0.203656
 4233         ho    143    ccc    H11   4233 0.4186155   1.008000   ; qtot 0.322419
 4234         c3    143    ccc     C7   4234 -0.01321200  12.010000   ; qtot 0.309207
 4235         h1    143    ccc    H12   4235 0.08172200   1.008000   ; qtot 0.390929
 4236         h1    143    ccc    H13   4236 0.08172200   1.008000   ; qtot 0.472651
 4237         c3    143    ccc     C8   4237 -0.22180000  12.010000   ; qtot 0.250851
 4238         hc    143    ccc    H14   4238 0.09671800   1.008000   ; qtot 0.347569
 4239         hc    143    ccc    H15   4239 0.09671800   1.008000   ; qtot 0.444287
 4240          c    143    ccc     C9   4240 0.526324  12.010000   ; qtot 1.440814
 4241          o    143    ccc     O3   4241 -0.39142825  16.000000   ; qtot 0.744308
 4242         oh    143    ccc     O4   4242 -0.56822625  16.000000   ; qtot -0.096503
 4243         ho    143    ccc    H16   4243 0.4186155   1.008000   ; qtot 0.429572
 4244         os    143    ccc     O5   4244 -0.42966500  16.000000   ; qtot -0.000093
; residue  144 ccc rtp ccc q 0.0
 4245         c3    144    ccc     C1   4245 0.50749700  12.010000   ; qtot 0.507404
 4246         h1    144    ccc     H1   4246 -0.02808400   1.008000   ; qtot 0.479320
 4247         h1    144    ccc     H2   4247 -0.02808400   1.008000   ; qtot 0.451236
 4248         c3    144    ccc     C2   4248 -0.15486000  12.010000   ; qtot 0.296376
 4249         hc    144    ccc     H3   4249 0.10266400   1.008000   ; qtot 0.399040
 4250         hc    144    ccc     H4   4250 0.10266400   1.008000   ; qtot 0.501704
 4251         c3    144    ccc     C3   4251 -0.15693500  12.010000   ; qtot 0.344769
 4252         h1    144    ccc     H5   4252 0.08499200   1.008000   ; qtot 0.429761
 4253         h1    144    ccc     H6   4253 0.08499200   1.008000   ; qtot 0.514753
 4254         n3    144    ccc     N1   4254 -0.29948700  14.010000   ; qtot 0.215266
 4255         c3    144    ccc     C4   4255 -0.01321200  12.010000   ; qtot 0.202054
 4256         h1    144    ccc     H7   4256 0.08172200   1.008000   ; qtot 0.283776
 4257         h1    144    ccc     H8   4257 0.08172200   1.008000   ; qtot 0.365498
 4258         c3    144    ccc     C5   4258 -0.22180000  12.010000   ; qtot 0.143698
 4259         hc    144    ccc     H9   4259 0.09671800   1.008000   ; qtot 0.240416
 4260         hc    144    ccc    H10   4260 0.09671800   1.008000   ; qtot 0.337134
 4261          c    144    ccc     C6   4261 0.526324  12.010000   ; qtot 1.333661
 4262          o    144    ccc     O1   4262 -0.39142825  16.000000   ; qtot 0.637155
 4263         oh    144    ccc     O2   4263 -0.56822625  16.000000   ; qtot -0.203656
 4264         ho    144    ccc    H11   4264 0.4186155   1.008000   ; qtot 0.322419
 4265         c3    144    ccc     C7   4265 -0.01321200  12.010000   ; qtot 0.309207
 4266         h1    144    ccc    H12   4266 0.08172200   1.008000   ; qtot 0.390929
 4267         h1    144    ccc    H13   4267 0.08172200   1.008000   ; qtot 0.472651
 4268         c3    144    ccc     C8   4268 -0.22180000  12.010000   ; qtot 0.250851
 4269         hc    144    ccc    H14   4269 0.09671800   1.008000   ; qtot 0.347569
 4270         hc    144    ccc    H15   4270 0.09671800   1.008000   ; qtot 0.444287
 4271          c    144    ccc     C9   4271 0.526324  12.010000   ; qtot 1.440814
 4272          o    144    ccc     O3   4272 -0.39142825  16.000000   ; qtot 0.744308
 4273         oh    144    ccc     O4   4273 -0.56822625  16.000000   ; qtot -0.096503
 4274         ho    144    ccc    H16   4274 0.4186155   1.008000   ; qtot 0.429572
 4275         os    144    ccc     O5   4275 -0.42966500  16.000000   ; qtot -0.000093
; residue  145 ccc rtp ccc q 0.0
 4276         c3    145    ccc     C1   4276 0.50749700  12.010000   ; qtot 0.507404
 4277         h1    145    ccc     H1   4277 -0.02808400   1.008000   ; qtot 0.479320
 4278         h1    145    ccc     H2   4278 -0.02808400   1.008000   ; qtot 0.451236
 4279         c3    145    ccc     C2   4279 -0.15486000  12.010000   ; qtot 0.296376
 4280         hc    145    ccc     H3   4280 0.10266400   1.008000   ; qtot 0.399040
 4281         hc    145    ccc     H4   4281 0.10266400   1.008000   ; qtot 0.501704
 4282         c3    145    ccc     C3   4282 -0.15693500  12.010000   ; qtot 0.344769
 4283         h1    145    ccc     H5   4283 0.08499200   1.008000   ; qtot 0.429761
 4284         h1    145    ccc     H6   4284 0.08499200   1.008000   ; qtot 0.514753
 4285         n3    145    ccc     N1   4285 -0.29948700  14.010000   ; qtot 0.215266
 4286         c3    145    ccc     C4   4286 -0.01321200  12.010000   ; qtot 0.202054
 4287         h1    145    ccc     H7   4287 0.08172200   1.008000   ; qtot 0.283776
 4288         h1    145    ccc     H8   4288 0.08172200   1.008000   ; qtot 0.365498
 4289         c3    145    ccc     C5   4289 -0.22180000  12.010000   ; qtot 0.143698
 4290         hc    145    ccc     H9   4290 0.09671800   1.008000   ; qtot 0.240416
 4291         hc    145    ccc    H10   4291 0.09671800   1.008000   ; qtot 0.337134
 4292          c    145    ccc     C6   4292 0.526324  12.010000   ; qtot 1.333661
 4293          o    145    ccc     O1   4293 -0.39142825  16.000000   ; qtot 0.637155
 4294         oh    145    ccc     O2   4294 -0.56822625  16.000000   ; qtot -0.203656
 4295         ho    145    ccc    H11   4295 0.4186155   1.008000   ; qtot 0.322419
 4296         c3    145    ccc     C7   4296 -0.01321200  12.010000   ; qtot 0.309207
 4297         h1    145    ccc    H12   4297 0.08172200   1.008000   ; qtot 0.390929
 4298         h1    145    ccc    H13   4298 0.08172200   1.008000   ; qtot 0.472651
 4299         c3    145    ccc     C8   4299 -0.22180000  12.010000   ; qtot 0.250851
 4300         hc    145    ccc    H14   4300 0.09671800   1.008000   ; qtot 0.347569
 4301         hc    145    ccc    H15   4301 0.09671800   1.008000   ; qtot 0.444287
 4302          c    145    ccc     C9   4302 0.526324  12.010000   ; qtot 1.440814
 4303          o    145    ccc     O3   4303 -0.39142825  16.000000   ; qtot 0.744308
 4304         oh    145    ccc     O4   4304 -0.56822625  16.000000   ; qtot -0.096503
 4305         ho    145    ccc    H16   4305 0.4186155   1.008000   ; qtot 0.429572
 4306         os    145    ccc     O5   4306 -0.42966500  16.000000   ; qtot -0.000093
; residue  146 ccc rtp ccc q 0.0
 4307         c3    146    ccc     C1   4307 0.50749700  12.010000   ; qtot 0.507404
 4308         h1    146    ccc     H1   4308 -0.02808400   1.008000   ; qtot 0.479320
 4309         h1    146    ccc     H2   4309 -0.02808400   1.008000   ; qtot 0.451236
 4310         c3    146    ccc     C2   4310 -0.15486000  12.010000   ; qtot 0.296376
 4311         hc    146    ccc     H3   4311 0.10266400   1.008000   ; qtot 0.399040
 4312         hc    146    ccc     H4   4312 0.10266400   1.008000   ; qtot 0.501704
 4313         c3    146    ccc     C3   4313 -0.15693500  12.010000   ; qtot 0.344769
 4314         h1    146    ccc     H5   4314 0.08499200   1.008000   ; qtot 0.429761
 4315         h1    146    ccc     H6   4315 0.08499200   1.008000   ; qtot 0.514753
 4316         n3    146    ccc     N1   4316 -0.29948700  14.010000   ; qtot 0.215266
 4317         c3    146    ccc     C4   4317 -0.01321200  12.010000   ; qtot 0.202054
 4318         h1    146    ccc     H7   4318 0.08172200   1.008000   ; qtot 0.283776
 4319         h1    146    ccc     H8   4319 0.08172200   1.008000   ; qtot 0.365498
 4320         c3    146    ccc     C5   4320 -0.22180000  12.010000   ; qtot 0.143698
 4321         hc    146    ccc     H9   4321 0.09671800   1.008000   ; qtot 0.240416
 4322         hc    146    ccc    H10   4322 0.09671800   1.008000   ; qtot 0.337134
 4323          c    146    ccc     C6   4323 0.526324  12.010000   ; qtot 1.333661
 4324          o    146    ccc     O1   4324 -0.39142825  16.000000   ; qtot 0.637155
 4325         oh    146    ccc     O2   4325 -0.56822625  16.000000   ; qtot -0.203656
 4326         ho    146    ccc    H11   4326 0.4186155   1.008000   ; qtot 0.322419
 4327         c3    146    ccc     C7   4327 -0.01321200  12.010000   ; qtot 0.309207
 4328         h1    146    ccc    H12   4328 0.08172200   1.008000   ; qtot 0.390929
 4329         h1    146    ccc    H13   4329 0.08172200   1.008000   ; qtot 0.472651
 4330         c3    146    ccc     C8   4330 -0.22180000  12.010000   ; qtot 0.250851
 4331         hc    146    ccc    H14   4331 0.09671800   1.008000   ; qtot 0.347569
 4332         hc    146    ccc    H15   4332 0.09671800   1.008000   ; qtot 0.444287
 4333          c    146    ccc     C9   4333 0.526324  12.010000   ; qtot 1.440814
 4334          o    146    ccc     O3   4334 -0.39142825  16.000000   ; qtot 0.744308
 4335         oh    146    ccc     O4   4335 -0.56822625  16.000000   ; qtot -0.096503
 4336         ho    146    ccc    H16   4336 0.4186155   1.008000   ; qtot 0.429572
 4337         os    146    ccc     O5   4337 -0.42966500  16.000000   ; qtot -0.000093
; residue  147 ccc rtp ccc q 0.0
 4338         c3    147    ccc     C1   4338 0.50749700  12.010000   ; qtot 0.507404
 4339         h1    147    ccc     H1   4339 -0.02808400   1.008000   ; qtot 0.479320
 4340         h1    147    ccc     H2   4340 -0.02808400   1.008000   ; qtot 0.451236
 4341         c3    147    ccc     C2   4341 -0.15486000  12.010000   ; qtot 0.296376
 4342         hc    147    ccc     H3   4342 0.10266400   1.008000   ; qtot 0.399040
 4343         hc    147    ccc     H4   4343 0.10266400   1.008000   ; qtot 0.501704
 4344         c3    147    ccc     C3   4344 -0.15693500  12.010000   ; qtot 0.344769
 4345         h1    147    ccc     H5   4345 0.08499200   1.008000   ; qtot 0.429761
 4346         h1    147    ccc     H6   4346 0.08499200   1.008000   ; qtot 0.514753
 4347         n3    147    ccc     N1   4347 -0.29948700  14.010000   ; qtot 0.215266
 4348         c3    147    ccc     C4   4348 -0.01321200  12.010000   ; qtot 0.202054
 4349         h1    147    ccc     H7   4349 0.08172200   1.008000   ; qtot 0.283776
 4350         h1    147    ccc     H8   4350 0.08172200   1.008000   ; qtot 0.365498
 4351         c3    147    ccc     C5   4351 -0.22180000  12.010000   ; qtot 0.143698
 4352         hc    147    ccc     H9   4352 0.09671800   1.008000   ; qtot 0.240416
 4353         hc    147    ccc    H10   4353 0.09671800   1.008000   ; qtot 0.337134
 4354          c    147    ccc     C6   4354 0.526324  12.010000   ; qtot 1.333661
 4355          o    147    ccc     O1   4355 -0.39142825  16.000000   ; qtot 0.637155
 4356         oh    147    ccc     O2   4356 -0.56822625  16.000000   ; qtot -0.203656
 4357         ho    147    ccc    H11   4357 0.4186155   1.008000   ; qtot 0.322419
 4358         c3    147    ccc     C7   4358 -0.01321200  12.010000   ; qtot 0.309207
 4359         h1    147    ccc    H12   4359 0.08172200   1.008000   ; qtot 0.390929
 4360         h1    147    ccc    H13   4360 0.08172200   1.008000   ; qtot 0.472651
 4361         c3    147    ccc     C8   4361 -0.22180000  12.010000   ; qtot 0.250851
 4362         hc    147    ccc    H14   4362 0.09671800   1.008000   ; qtot 0.347569
 4363         hc    147    ccc    H15   4363 0.09671800   1.008000   ; qtot 0.444287
 4364          c    147    ccc     C9   4364 0.526324  12.010000   ; qtot 1.440814
 4365          o    147    ccc     O3   4365 -0.39142825  16.000000   ; qtot 0.744308
 4366         oh    147    ccc     O4   4366 -0.56822625  16.000000   ; qtot -0.096503
 4367         ho    147    ccc    H16   4367 0.4186155   1.008000   ; qtot 0.429572
 4368         os    147    ccc     O5   4368 -0.42966500  16.000000   ; qtot -0.000093
; residue  148 ccc rtp ccc q 0.0
 4369         c3    148    ccc     C1   4369 0.50749700  12.010000   ; qtot 0.507404
 4370         h1    148    ccc     H1   4370 -0.02808400   1.008000   ; qtot 0.479320
 4371         h1    148    ccc     H2   4371 -0.02808400   1.008000   ; qtot 0.451236
 4372         c3    148    ccc     C2   4372 -0.15486000  12.010000   ; qtot 0.296376
 4373         hc    148    ccc     H3   4373 0.10266400   1.008000   ; qtot 0.399040
 4374         hc    148    ccc     H4   4374 0.10266400   1.008000   ; qtot 0.501704
 4375         c3    148    ccc     C3   4375 -0.15693500  12.010000   ; qtot 0.344769
 4376         h1    148    ccc     H5   4376 0.08499200   1.008000   ; qtot 0.429761
 4377         h1    148    ccc     H6   4377 0.08499200   1.008000   ; qtot 0.514753
 4378         n3    148    ccc     N1   4378 -0.29948700  14.010000   ; qtot 0.215266
 4379         c3    148    ccc     C4   4379 -0.01321200  12.010000   ; qtot 0.202054
 4380         h1    148    ccc     H7   4380 0.08172200   1.008000   ; qtot 0.283776
 4381         h1    148    ccc     H8   4381 0.08172200   1.008000   ; qtot 0.365498
 4382         c3    148    ccc     C5   4382 -0.22180000  12.010000   ; qtot 0.143698
 4383         hc    148    ccc     H9   4383 0.09671800   1.008000   ; qtot 0.240416
 4384         hc    148    ccc    H10   4384 0.09671800   1.008000   ; qtot 0.337134
 4385          c    148    ccc     C6   4385 0.526324  12.010000   ; qtot 1.333661
 4386          o    148    ccc     O1   4386 -0.39142825  16.000000   ; qtot 0.637155
 4387         oh    148    ccc     O2   4387 -0.56822625  16.000000   ; qtot -0.203656
 4388         ho    148    ccc    H11   4388 0.4186155   1.008000   ; qtot 0.322419
 4389         c3    148    ccc     C7   4389 -0.01321200  12.010000   ; qtot 0.309207
 4390         h1    148    ccc    H12   4390 0.08172200   1.008000   ; qtot 0.390929
 4391         h1    148    ccc    H13   4391 0.08172200   1.008000   ; qtot 0.472651
 4392         c3    148    ccc     C8   4392 -0.22180000  12.010000   ; qtot 0.250851
 4393         hc    148    ccc    H14   4393 0.09671800   1.008000   ; qtot 0.347569
 4394         hc    148    ccc    H15   4394 0.09671800   1.008000   ; qtot 0.444287
 4395          c    148    ccc     C9   4395 0.526324  12.010000   ; qtot 1.440814
 4396          o    148    ccc     O3   4396 -0.39142825  16.000000   ; qtot 0.744308
 4397         oh    148    ccc     O4   4397 -0.56822625  16.000000   ; qtot -0.096503
 4398         ho    148    ccc    H16   4398 0.4186155   1.008000   ; qtot 0.429572
 4399         os    148    ccc     O5   4399 -0.42966500  16.000000   ; qtot -0.000093
; residue  149 ccc rtp ccc q 0.0
 4400         c3    149    ccc     C1   4400 0.50749700  12.010000   ; qtot 0.507404
 4401         h1    149    ccc     H1   4401 -0.02808400   1.008000   ; qtot 0.479320
 4402         h1    149    ccc     H2   4402 -0.02808400   1.008000   ; qtot 0.451236
 4403         c3    149    ccc     C2   4403 -0.15486000  12.010000   ; qtot 0.296376
 4404         hc    149    ccc     H3   4404 0.10266400   1.008000   ; qtot 0.399040
 4405         hc    149    ccc     H4   4405 0.10266400   1.008000   ; qtot 0.501704
 4406         c3    149    ccc     C3   4406 -0.15693500  12.010000   ; qtot 0.344769
 4407         h1    149    ccc     H5   4407 0.08499200   1.008000   ; qtot 0.429761
 4408         h1    149    ccc     H6   4408 0.08499200   1.008000   ; qtot 0.514753
 4409         n3    149    ccc     N1   4409 -0.29948700  14.010000   ; qtot 0.215266
 4410         c3    149    ccc     C4   4410 -0.01321200  12.010000   ; qtot 0.202054
 4411         h1    149    ccc     H7   4411 0.08172200   1.008000   ; qtot 0.283776
 4412         h1    149    ccc     H8   4412 0.08172200   1.008000   ; qtot 0.365498
 4413         c3    149    ccc     C5   4413 -0.22180000  12.010000   ; qtot 0.143698
 4414         hc    149    ccc     H9   4414 0.09671800   1.008000   ; qtot 0.240416
 4415         hc    149    ccc    H10   4415 0.09671800   1.008000   ; qtot 0.337134
 4416          c    149    ccc     C6   4416 0.526324  12.010000   ; qtot 1.333661
 4417          o    149    ccc     O1   4417 -0.39142825  16.000000   ; qtot 0.637155
 4418         oh    149    ccc     O2   4418 -0.56822625  16.000000   ; qtot -0.203656
 4419         ho    149    ccc    H11   4419 0.4186155   1.008000   ; qtot 0.322419
 4420         c3    149    ccc     C7   4420 -0.01321200  12.010000   ; qtot 0.309207
 4421         h1    149    ccc    H12   4421 0.08172200   1.008000   ; qtot 0.390929
 4422         h1    149    ccc    H13   4422 0.08172200   1.008000   ; qtot 0.472651
 4423         c3    149    ccc     C8   4423 -0.22180000  12.010000   ; qtot 0.250851
 4424         hc    149    ccc    H14   4424 0.09671800   1.008000   ; qtot 0.347569
 4425         hc    149    ccc    H15   4425 0.09671800   1.008000   ; qtot 0.444287
 4426          c    149    ccc     C9   4426 0.526324  12.010000   ; qtot 1.440814
 4427          o    149    ccc     O3   4427 -0.39142825  16.000000   ; qtot 0.744308
 4428         oh    149    ccc     O4   4428 -0.56822625  16.000000   ; qtot -0.096503
 4429         ho    149    ccc    H16   4429 0.4186155   1.008000   ; qtot 0.429572
 4430         os    149    ccc     O5   4430 -0.42966500  16.000000   ; qtot -0.000093
; residue  150 ccc rtp ccc q 0.0
 4431         c3    150    ccc     C1   4431 0.50749700  12.010000   ; qtot 0.507404
 4432         h1    150    ccc     H1   4432 -0.02808400   1.008000   ; qtot 0.479320
 4433         h1    150    ccc     H2   4433 -0.02808400   1.008000   ; qtot 0.451236
 4434         c3    150    ccc     C2   4434 -0.15486000  12.010000   ; qtot 0.296376
 4435         hc    150    ccc     H3   4435 0.10266400   1.008000   ; qtot 0.399040
 4436         hc    150    ccc     H4   4436 0.10266400   1.008000   ; qtot 0.501704
 4437         c3    150    ccc     C3   4437 -0.15693500  12.010000   ; qtot 0.344769
 4438         h1    150    ccc     H5   4438 0.08499200   1.008000   ; qtot 0.429761
 4439         h1    150    ccc     H6   4439 0.08499200   1.008000   ; qtot 0.514753
 4440         n3    150    ccc     N1   4440 -0.29948700  14.010000   ; qtot 0.215266
 4441         c3    150    ccc     C4   4441 -0.01321200  12.010000   ; qtot 0.202054
 4442         h1    150    ccc     H7   4442 0.08172200   1.008000   ; qtot 0.283776
 4443         h1    150    ccc     H8   4443 0.08172200   1.008000   ; qtot 0.365498
 4444         c3    150    ccc     C5   4444 -0.22180000  12.010000   ; qtot 0.143698
 4445         hc    150    ccc     H9   4445 0.09671800   1.008000   ; qtot 0.240416
 4446         hc    150    ccc    H10   4446 0.09671800   1.008000   ; qtot 0.337134
 4447          c    150    ccc     C6   4447 0.526324  12.010000   ; qtot 1.333661
 4448          o    150    ccc     O1   4448 -0.39142825  16.000000   ; qtot 0.637155
 4449         oh    150    ccc     O2   4449 -0.56822625  16.000000   ; qtot -0.203656
 4450         ho    150    ccc    H11   4450 0.4186155   1.008000   ; qtot 0.322419
 4451         c3    150    ccc     C7   4451 -0.01321200  12.010000   ; qtot 0.309207
 4452         h1    150    ccc    H12   4452 0.08172200   1.008000   ; qtot 0.390929
 4453         h1    150    ccc    H13   4453 0.08172200   1.008000   ; qtot 0.472651
 4454         c3    150    ccc     C8   4454 -0.22180000  12.010000   ; qtot 0.250851
 4455         hc    150    ccc    H14   4455 0.09671800   1.008000   ; qtot 0.347569
 4456         hc    150    ccc    H15   4456 0.09671800   1.008000   ; qtot 0.444287
 4457          c    150    ccc     C9   4457 0.526324  12.010000   ; qtot 1.440814
 4458          o    150    ccc     O3   4458 -0.39142825  16.000000   ; qtot 0.744308
 4459         oh    150    ccc     O4   4459 -0.56822625  16.000000   ; qtot -0.096503
 4460         ho    150    ccc    H16   4460 0.4186155   1.008000   ; qtot 0.429572
 4461         os    150    ccc     O5   4461 -0.42966500  16.000000   ; qtot -0.000093
; residue  151 ccc rtp ccc q 0.0
 4462         c3    151    ccc     C1   4462 0.50749700  12.010000   ; qtot 0.507404
 4463         h1    151    ccc     H1   4463 -0.02808400   1.008000   ; qtot 0.479320
 4464         h1    151    ccc     H2   4464 -0.02808400   1.008000   ; qtot 0.451236
 4465         c3    151    ccc     C2   4465 -0.15486000  12.010000   ; qtot 0.296376
 4466         hc    151    ccc     H3   4466 0.10266400   1.008000   ; qtot 0.399040
 4467         hc    151    ccc     H4   4467 0.10266400   1.008000   ; qtot 0.501704
 4468         c3    151    ccc     C3   4468 -0.15693500  12.010000   ; qtot 0.344769
 4469         h1    151    ccc     H5   4469 0.08499200   1.008000   ; qtot 0.429761
 4470         h1    151    ccc     H6   4470 0.08499200   1.008000   ; qtot 0.514753
 4471         n3    151    ccc     N1   4471 -0.29948700  14.010000   ; qtot 0.215266
 4472         c3    151    ccc     C4   4472 -0.01321200  12.010000   ; qtot 0.202054
 4473         h1    151    ccc     H7   4473 0.08172200   1.008000   ; qtot 0.283776
 4474         h1    151    ccc     H8   4474 0.08172200   1.008000   ; qtot 0.365498
 4475         c3    151    ccc     C5   4475 -0.22180000  12.010000   ; qtot 0.143698
 4476         hc    151    ccc     H9   4476 0.09671800   1.008000   ; qtot 0.240416
 4477         hc    151    ccc    H10   4477 0.09671800   1.008000   ; qtot 0.337134
 4478          c    151    ccc     C6   4478 0.526324  12.010000   ; qtot 1.333661
 4479          o    151    ccc     O1   4479 -0.39142825  16.000000   ; qtot 0.637155
 4480         oh    151    ccc     O2   4480 -0.56822625  16.000000   ; qtot -0.203656
 4481         ho    151    ccc    H11   4481 0.4186155   1.008000   ; qtot 0.322419
 4482         c3    151    ccc     C7   4482 -0.01321200  12.010000   ; qtot 0.309207
 4483         h1    151    ccc    H12   4483 0.08172200   1.008000   ; qtot 0.390929
 4484         h1    151    ccc    H13   4484 0.08172200   1.008000   ; qtot 0.472651
 4485         c3    151    ccc     C8   4485 -0.22180000  12.010000   ; qtot 0.250851
 4486         hc    151    ccc    H14   4486 0.09671800   1.008000   ; qtot 0.347569
 4487         hc    151    ccc    H15   4487 0.09671800   1.008000   ; qtot 0.444287
 4488          c    151    ccc     C9   4488 0.526324  12.010000   ; qtot 1.440814
 4489          o    151    ccc     O3   4489 -0.39142825  16.000000   ; qtot 0.744308
 4490         oh    151    ccc     O4   4490 -0.56822625  16.000000   ; qtot -0.096503
 4491         ho    151    ccc    H16   4491 0.4186155   1.008000   ; qtot 0.429572
 4492         os    151    ccc     O5   4492 -0.42966500  16.000000   ; qtot -0.000093
; residue  152 ccc rtp ccc q 0.0
 4493         c3    152    ccc     C1   4493 0.50749700  12.010000   ; qtot 0.507404
 4494         h1    152    ccc     H1   4494 -0.02808400   1.008000   ; qtot 0.479320
 4495         h1    152    ccc     H2   4495 -0.02808400   1.008000   ; qtot 0.451236
 4496         c3    152    ccc     C2   4496 -0.15486000  12.010000   ; qtot 0.296376
 4497         hc    152    ccc     H3   4497 0.10266400   1.008000   ; qtot 0.399040
 4498         hc    152    ccc     H4   4498 0.10266400   1.008000   ; qtot 0.501704
 4499         c3    152    ccc     C3   4499 -0.15693500  12.010000   ; qtot 0.344769
 4500         h1    152    ccc     H5   4500 0.08499200   1.008000   ; qtot 0.429761
 4501         h1    152    ccc     H6   4501 0.08499200   1.008000   ; qtot 0.514753
 4502         n3    152    ccc     N1   4502 -0.29948700  14.010000   ; qtot 0.215266
 4503         c3    152    ccc     C4   4503 -0.01321200  12.010000   ; qtot 0.202054
 4504         h1    152    ccc     H7   4504 0.08172200   1.008000   ; qtot 0.283776
 4505         h1    152    ccc     H8   4505 0.08172200   1.008000   ; qtot 0.365498
 4506         c3    152    ccc     C5   4506 -0.22180000  12.010000   ; qtot 0.143698
 4507         hc    152    ccc     H9   4507 0.09671800   1.008000   ; qtot 0.240416
 4508         hc    152    ccc    H10   4508 0.09671800   1.008000   ; qtot 0.337134
 4509          c    152    ccc     C6   4509 0.526324  12.010000   ; qtot 1.333661
 4510          o    152    ccc     O1   4510 -0.39142825  16.000000   ; qtot 0.637155
 4511         oh    152    ccc     O2   4511 -0.56822625  16.000000   ; qtot -0.203656
 4512         ho    152    ccc    H11   4512 0.4186155   1.008000   ; qtot 0.322419
 4513         c3    152    ccc     C7   4513 -0.01321200  12.010000   ; qtot 0.309207
 4514         h1    152    ccc    H12   4514 0.08172200   1.008000   ; qtot 0.390929
 4515         h1    152    ccc    H13   4515 0.08172200   1.008000   ; qtot 0.472651
 4516         c3    152    ccc     C8   4516 -0.22180000  12.010000   ; qtot 0.250851
 4517         hc    152    ccc    H14   4517 0.09671800   1.008000   ; qtot 0.347569
 4518         hc    152    ccc    H15   4518 0.09671800   1.008000   ; qtot 0.444287
 4519          c    152    ccc     C9   4519 0.526324  12.010000   ; qtot 1.440814
 4520          o    152    ccc     O3   4520 -0.39142825  16.000000   ; qtot 0.744308
 4521         oh    152    ccc     O4   4521 -0.56822625  16.000000   ; qtot -0.096503
 4522         ho    152    ccc    H16   4522 0.4186155   1.008000   ; qtot 0.429572
 4523         os    152    ccc     O5   4523 -0.42966500  16.000000   ; qtot -0.000093
; residue  153 ccc rtp ccc q 0.0
 4524         c3    153    ccc     C1   4524 0.50749700  12.010000   ; qtot 0.507404
 4525         h1    153    ccc     H1   4525 -0.02808400   1.008000   ; qtot 0.479320
 4526         h1    153    ccc     H2   4526 -0.02808400   1.008000   ; qtot 0.451236
 4527         c3    153    ccc     C2   4527 -0.15486000  12.010000   ; qtot 0.296376
 4528         hc    153    ccc     H3   4528 0.10266400   1.008000   ; qtot 0.399040
 4529         hc    153    ccc     H4   4529 0.10266400   1.008000   ; qtot 0.501704
 4530         c3    153    ccc     C3   4530 -0.15693500  12.010000   ; qtot 0.344769
 4531         h1    153    ccc     H5   4531 0.08499200   1.008000   ; qtot 0.429761
 4532         h1    153    ccc     H6   4532 0.08499200   1.008000   ; qtot 0.514753
 4533         n3    153    ccc     N1   4533 -0.29948700  14.010000   ; qtot 0.215266
 4534         c3    153    ccc     C4   4534 -0.01321200  12.010000   ; qtot 0.202054
 4535         h1    153    ccc     H7   4535 0.08172200   1.008000   ; qtot 0.283776
 4536         h1    153    ccc     H8   4536 0.08172200   1.008000   ; qtot 0.365498
 4537         c3    153    ccc     C5   4537 -0.22180000  12.010000   ; qtot 0.143698
 4538         hc    153    ccc     H9   4538 0.09671800   1.008000   ; qtot 0.240416
 4539         hc    153    ccc    H10   4539 0.09671800   1.008000   ; qtot 0.337134
 4540          c    153    ccc     C6   4540 0.526324  12.010000   ; qtot 1.333661
 4541          o    153    ccc     O1   4541 -0.39142825  16.000000   ; qtot 0.637155
 4542         oh    153    ccc     O2   4542 -0.56822625  16.000000   ; qtot -0.203656
 4543         ho    153    ccc    H11   4543 0.4186155   1.008000   ; qtot 0.322419
 4544         c3    153    ccc     C7   4544 -0.01321200  12.010000   ; qtot 0.309207
 4545         h1    153    ccc    H12   4545 0.08172200   1.008000   ; qtot 0.390929
 4546         h1    153    ccc    H13   4546 0.08172200   1.008000   ; qtot 0.472651
 4547         c3    153    ccc     C8   4547 -0.22180000  12.010000   ; qtot 0.250851
 4548         hc    153    ccc    H14   4548 0.09671800   1.008000   ; qtot 0.347569
 4549         hc    153    ccc    H15   4549 0.09671800   1.008000   ; qtot 0.444287
 4550          c    153    ccc     C9   4550 0.526324  12.010000   ; qtot 1.440814
 4551          o    153    ccc     O3   4551 -0.39142825  16.000000   ; qtot 0.744308
 4552         oh    153    ccc     O4   4552 -0.56822625  16.000000   ; qtot -0.096503
 4553         ho    153    ccc    H16   4553 0.4186155   1.008000   ; qtot 0.429572
 4554         os    153    ccc     O5   4554 -0.42966500  16.000000   ; qtot -0.000093
; residue  154 ccc rtp ccc q 0.0
 4555         c3    154    ccc     C1   4555 0.50749700  12.010000   ; qtot 0.507404
 4556         h1    154    ccc     H1   4556 -0.02808400   1.008000   ; qtot 0.479320
 4557         h1    154    ccc     H2   4557 -0.02808400   1.008000   ; qtot 0.451236
 4558         c3    154    ccc     C2   4558 -0.15486000  12.010000   ; qtot 0.296376
 4559         hc    154    ccc     H3   4559 0.10266400   1.008000   ; qtot 0.399040
 4560         hc    154    ccc     H4   4560 0.10266400   1.008000   ; qtot 0.501704
 4561         c3    154    ccc     C3   4561 -0.15693500  12.010000   ; qtot 0.344769
 4562         h1    154    ccc     H5   4562 0.08499200   1.008000   ; qtot 0.429761
 4563         h1    154    ccc     H6   4563 0.08499200   1.008000   ; qtot 0.514753
 4564         n3    154    ccc     N1   4564 -0.29948700  14.010000   ; qtot 0.215266
 4565         c3    154    ccc     C4   4565 -0.01321200  12.010000   ; qtot 0.202054
 4566         h1    154    ccc     H7   4566 0.08172200   1.008000   ; qtot 0.283776
 4567         h1    154    ccc     H8   4567 0.08172200   1.008000   ; qtot 0.365498
 4568         c3    154    ccc     C5   4568 -0.22180000  12.010000   ; qtot 0.143698
 4569         hc    154    ccc     H9   4569 0.09671800   1.008000   ; qtot 0.240416
 4570         hc    154    ccc    H10   4570 0.09671800   1.008000   ; qtot 0.337134
 4571          c    154    ccc     C6   4571 0.526324  12.010000   ; qtot 1.333661
 4572          o    154    ccc     O1   4572 -0.39142825  16.000000   ; qtot 0.637155
 4573         oh    154    ccc     O2   4573 -0.56822625  16.000000   ; qtot -0.203656
 4574         ho    154    ccc    H11   4574 0.4186155   1.008000   ; qtot 0.322419
 4575         c3    154    ccc     C7   4575 -0.01321200  12.010000   ; qtot 0.309207
 4576         h1    154    ccc    H12   4576 0.08172200   1.008000   ; qtot 0.390929
 4577         h1    154    ccc    H13   4577 0.08172200   1.008000   ; qtot 0.472651
 4578         c3    154    ccc     C8   4578 -0.22180000  12.010000   ; qtot 0.250851
 4579         hc    154    ccc    H14   4579 0.09671800   1.008000   ; qtot 0.347569
 4580         hc    154    ccc    H15   4580 0.09671800   1.008000   ; qtot 0.444287
 4581          c    154    ccc     C9   4581 0.526324  12.010000   ; qtot 1.440814
 4582          o    154    ccc     O3   4582 -0.39142825  16.000000   ; qtot 0.744308
 4583         oh    154    ccc     O4   4583 -0.56822625  16.000000   ; qtot -0.096503
 4584         ho    154    ccc    H16   4584 0.4186155   1.008000   ; qtot 0.429572
 4585         os    154    ccc     O5   4585 -0.42966500  16.000000   ; qtot -0.000093
; residue  155 ccc rtp ccc q 0.0
 4586         c3    155    ccc     C1   4586 0.50749700  12.010000   ; qtot 0.507404
 4587         h1    155    ccc     H1   4587 -0.02808400   1.008000   ; qtot 0.479320
 4588         h1    155    ccc     H2   4588 -0.02808400   1.008000   ; qtot 0.451236
 4589         c3    155    ccc     C2   4589 -0.15486000  12.010000   ; qtot 0.296376
 4590         hc    155    ccc     H3   4590 0.10266400   1.008000   ; qtot 0.399040
 4591         hc    155    ccc     H4   4591 0.10266400   1.008000   ; qtot 0.501704
 4592         c3    155    ccc     C3   4592 -0.15693500  12.010000   ; qtot 0.344769
 4593         h1    155    ccc     H5   4593 0.08499200   1.008000   ; qtot 0.429761
 4594         h1    155    ccc     H6   4594 0.08499200   1.008000   ; qtot 0.514753
 4595         n3    155    ccc     N1   4595 -0.29948700  14.010000   ; qtot 0.215266
 4596         c3    155    ccc     C4   4596 -0.01321200  12.010000   ; qtot 0.202054
 4597         h1    155    ccc     H7   4597 0.08172200   1.008000   ; qtot 0.283776
 4598         h1    155    ccc     H8   4598 0.08172200   1.008000   ; qtot 0.365498
 4599         c3    155    ccc     C5   4599 -0.22180000  12.010000   ; qtot 0.143698
 4600         hc    155    ccc     H9   4600 0.09671800   1.008000   ; qtot 0.240416
 4601         hc    155    ccc    H10   4601 0.09671800   1.008000   ; qtot 0.337134
 4602          c    155    ccc     C6   4602 0.526324  12.010000   ; qtot 1.333661
 4603          o    155    ccc     O1   4603 -0.39142825  16.000000   ; qtot 0.637155
 4604         oh    155    ccc     O2   4604 -0.56822625  16.000000   ; qtot -0.203656
 4605         ho    155    ccc    H11   4605 0.4186155   1.008000   ; qtot 0.322419
 4606         c3    155    ccc     C7   4606 -0.01321200  12.010000   ; qtot 0.309207
 4607         h1    155    ccc    H12   4607 0.08172200   1.008000   ; qtot 0.390929
 4608         h1    155    ccc    H13   4608 0.08172200   1.008000   ; qtot 0.472651
 4609         c3    155    ccc     C8   4609 -0.22180000  12.010000   ; qtot 0.250851
 4610         hc    155    ccc    H14   4610 0.09671800   1.008000   ; qtot 0.347569
 4611         hc    155    ccc    H15   4611 0.09671800   1.008000   ; qtot 0.444287
 4612          c    155    ccc     C9   4612 0.526324  12.010000   ; qtot 1.440814
 4613          o    155    ccc     O3   4613 -0.39142825  16.000000   ; qtot 0.744308
 4614         oh    155    ccc     O4   4614 -0.56822625  16.000000   ; qtot -0.096503
 4615         ho    155    ccc    H16   4615 0.4186155   1.008000   ; qtot 0.429572
 4616         os    155    ccc     O5   4616 -0.42966500  16.000000   ; qtot -0.000093
; residue  156 ccc rtp ccc q 0.0
 4617         c3    156    ccc     C1   4617 0.50749700  12.010000   ; qtot 0.507404
 4618         h1    156    ccc     H1   4618 -0.02808400   1.008000   ; qtot 0.479320
 4619         h1    156    ccc     H2   4619 -0.02808400   1.008000   ; qtot 0.451236
 4620         c3    156    ccc     C2   4620 -0.15486000  12.010000   ; qtot 0.296376
 4621         hc    156    ccc     H3   4621 0.10266400   1.008000   ; qtot 0.399040
 4622         hc    156    ccc     H4   4622 0.10266400   1.008000   ; qtot 0.501704
 4623         c3    156    ccc     C3   4623 -0.15693500  12.010000   ; qtot 0.344769
 4624         h1    156    ccc     H5   4624 0.08499200   1.008000   ; qtot 0.429761
 4625         h1    156    ccc     H6   4625 0.08499200   1.008000   ; qtot 0.514753
 4626         n3    156    ccc     N1   4626 -0.29948700  14.010000   ; qtot 0.215266
 4627         c3    156    ccc     C4   4627 -0.01321200  12.010000   ; qtot 0.202054
 4628         h1    156    ccc     H7   4628 0.08172200   1.008000   ; qtot 0.283776
 4629         h1    156    ccc     H8   4629 0.08172200   1.008000   ; qtot 0.365498
 4630         c3    156    ccc     C5   4630 -0.22180000  12.010000   ; qtot 0.143698
 4631         hc    156    ccc     H9   4631 0.09671800   1.008000   ; qtot 0.240416
 4632         hc    156    ccc    H10   4632 0.09671800   1.008000   ; qtot 0.337134
 4633          c    156    ccc     C6   4633 0.526324  12.010000   ; qtot 1.333661
 4634          o    156    ccc     O1   4634 -0.39142825  16.000000   ; qtot 0.637155
 4635         oh    156    ccc     O2   4635 -0.56822625  16.000000   ; qtot -0.203656
 4636         ho    156    ccc    H11   4636 0.4186155   1.008000   ; qtot 0.322419
 4637         c3    156    ccc     C7   4637 -0.01321200  12.010000   ; qtot 0.309207
 4638         h1    156    ccc    H12   4638 0.08172200   1.008000   ; qtot 0.390929
 4639         h1    156    ccc    H13   4639 0.08172200   1.008000   ; qtot 0.472651
 4640         c3    156    ccc     C8   4640 -0.22180000  12.010000   ; qtot 0.250851
 4641         hc    156    ccc    H14   4641 0.09671800   1.008000   ; qtot 0.347569
 4642         hc    156    ccc    H15   4642 0.09671800   1.008000   ; qtot 0.444287
 4643          c    156    ccc     C9   4643 0.526324  12.010000   ; qtot 1.440814
 4644          o    156    ccc     O3   4644 -0.39142825  16.000000   ; qtot 0.744308
 4645         oh    156    ccc     O4   4645 -0.56822625  16.000000   ; qtot -0.096503
 4646         ho    156    ccc    H16   4646 0.4186155   1.008000   ; qtot 0.429572
 4647         os    156    ccc     O5   4647 -0.42966500  16.000000   ; qtot -0.000093
; residue  157 ccc rtp ccc q 0.0
 4648         c3    157    ccc     C1   4648 0.50749700  12.010000   ; qtot 0.507404
 4649         h1    157    ccc     H1   4649 -0.02808400   1.008000   ; qtot 0.479320
 4650         h1    157    ccc     H2   4650 -0.02808400   1.008000   ; qtot 0.451236
 4651         c3    157    ccc     C2   4651 -0.15486000  12.010000   ; qtot 0.296376
 4652         hc    157    ccc     H3   4652 0.10266400   1.008000   ; qtot 0.399040
 4653         hc    157    ccc     H4   4653 0.10266400   1.008000   ; qtot 0.501704
 4654         c3    157    ccc     C3   4654 -0.15693500  12.010000   ; qtot 0.344769
 4655         h1    157    ccc     H5   4655 0.08499200   1.008000   ; qtot 0.429761
 4656         h1    157    ccc     H6   4656 0.08499200   1.008000   ; qtot 0.514753
 4657         n3    157    ccc     N1   4657 -0.29948700  14.010000   ; qtot 0.215266
 4658         c3    157    ccc     C4   4658 -0.01321200  12.010000   ; qtot 0.202054
 4659         h1    157    ccc     H7   4659 0.08172200   1.008000   ; qtot 0.283776
 4660         h1    157    ccc     H8   4660 0.08172200   1.008000   ; qtot 0.365498
 4661         c3    157    ccc     C5   4661 -0.22180000  12.010000   ; qtot 0.143698
 4662         hc    157    ccc     H9   4662 0.09671800   1.008000   ; qtot 0.240416
 4663         hc    157    ccc    H10   4663 0.09671800   1.008000   ; qtot 0.337134
 4664          c    157    ccc     C6   4664 0.526324  12.010000   ; qtot 1.333661
 4665          o    157    ccc     O1   4665 -0.39142825  16.000000   ; qtot 0.637155
 4666         oh    157    ccc     O2   4666 -0.56822625  16.000000   ; qtot -0.203656
 4667         ho    157    ccc    H11   4667 0.4186155   1.008000   ; qtot 0.322419
 4668         c3    157    ccc     C7   4668 -0.01321200  12.010000   ; qtot 0.309207
 4669         h1    157    ccc    H12   4669 0.08172200   1.008000   ; qtot 0.390929
 4670         h1    157    ccc    H13   4670 0.08172200   1.008000   ; qtot 0.472651
 4671         c3    157    ccc     C8   4671 -0.22180000  12.010000   ; qtot 0.250851
 4672         hc    157    ccc    H14   4672 0.09671800   1.008000   ; qtot 0.347569
 4673         hc    157    ccc    H15   4673 0.09671800   1.008000   ; qtot 0.444287
 4674          c    157    ccc     C9   4674 0.526324  12.010000   ; qtot 1.440814
 4675          o    157    ccc     O3   4675 -0.39142825  16.000000   ; qtot 0.744308
 4676         oh    157    ccc     O4   4676 -0.56822625  16.000000   ; qtot -0.096503
 4677         ho    157    ccc    H16   4677 0.4186155   1.008000   ; qtot 0.429572
 4678         os    157    ccc     O5   4678 -0.42966500  16.000000   ; qtot -0.000093
; residue  158 ccc rtp ccc q 0.0
 4679         c3    158    ccc     C1   4679 0.50749700  12.010000   ; qtot 0.507404
 4680         h1    158    ccc     H1   4680 -0.02808400   1.008000   ; qtot 0.479320
 4681         h1    158    ccc     H2   4681 -0.02808400   1.008000   ; qtot 0.451236
 4682         c3    158    ccc     C2   4682 -0.15486000  12.010000   ; qtot 0.296376
 4683         hc    158    ccc     H3   4683 0.10266400   1.008000   ; qtot 0.399040
 4684         hc    158    ccc     H4   4684 0.10266400   1.008000   ; qtot 0.501704
 4685         c3    158    ccc     C3   4685 -0.15693500  12.010000   ; qtot 0.344769
 4686         h1    158    ccc     H5   4686 0.08499200   1.008000   ; qtot 0.429761
 4687         h1    158    ccc     H6   4687 0.08499200   1.008000   ; qtot 0.514753
 4688         n3    158    ccc     N1   4688 -0.29948700  14.010000   ; qtot 0.215266
 4689         c3    158    ccc     C4   4689 -0.01321200  12.010000   ; qtot 0.202054
 4690         h1    158    ccc     H7   4690 0.08172200   1.008000   ; qtot 0.283776
 4691         h1    158    ccc     H8   4691 0.08172200   1.008000   ; qtot 0.365498
 4692         c3    158    ccc     C5   4692 -0.22180000  12.010000   ; qtot 0.143698
 4693         hc    158    ccc     H9   4693 0.09671800   1.008000   ; qtot 0.240416
 4694         hc    158    ccc    H10   4694 0.09671800   1.008000   ; qtot 0.337134
 4695          c    158    ccc     C6   4695 0.526324  12.010000   ; qtot 1.333661
 4696          o    158    ccc     O1   4696 -0.39142825  16.000000   ; qtot 0.637155
 4697         oh    158    ccc     O2   4697 -0.56822625  16.000000   ; qtot -0.203656
 4698         ho    158    ccc    H11   4698 0.4186155   1.008000   ; qtot 0.322419
 4699         c3    158    ccc     C7   4699 -0.01321200  12.010000   ; qtot 0.309207
 4700         h1    158    ccc    H12   4700 0.08172200   1.008000   ; qtot 0.390929
 4701         h1    158    ccc    H13   4701 0.08172200   1.008000   ; qtot 0.472651
 4702         c3    158    ccc     C8   4702 -0.22180000  12.010000   ; qtot 0.250851
 4703         hc    158    ccc    H14   4703 0.09671800   1.008000   ; qtot 0.347569
 4704         hc    158    ccc    H15   4704 0.09671800   1.008000   ; qtot 0.444287
 4705          c    158    ccc     C9   4705 0.526324  12.010000   ; qtot 1.440814
 4706          o    158    ccc     O3   4706 -0.39142825  16.000000   ; qtot 0.744308
 4707         oh    158    ccc     O4   4707 -0.56822625  16.000000   ; qtot -0.096503
 4708         ho    158    ccc    H16   4708 0.4186155   1.008000   ; qtot 0.429572
 4709         os    158    ccc     O5   4709 -0.42966500  16.000000   ; qtot -0.000093
; residue  159 ccc rtp ccc q 0.0
 4710         c3    159    ccc     C1   4710 0.50749700  12.010000   ; qtot 0.507404
 4711         h1    159    ccc     H1   4711 -0.02808400   1.008000   ; qtot 0.479320
 4712         h1    159    ccc     H2   4712 -0.02808400   1.008000   ; qtot 0.451236
 4713         c3    159    ccc     C2   4713 -0.15486000  12.010000   ; qtot 0.296376
 4714         hc    159    ccc     H3   4714 0.10266400   1.008000   ; qtot 0.399040
 4715         hc    159    ccc     H4   4715 0.10266400   1.008000   ; qtot 0.501704
 4716         c3    159    ccc     C3   4716 -0.15693500  12.010000   ; qtot 0.344769
 4717         h1    159    ccc     H5   4717 0.08499200   1.008000   ; qtot 0.429761
 4718         h1    159    ccc     H6   4718 0.08499200   1.008000   ; qtot 0.514753
 4719         n3    159    ccc     N1   4719 -0.29948700  14.010000   ; qtot 0.215266
 4720         c3    159    ccc     C4   4720 -0.01321200  12.010000   ; qtot 0.202054
 4721         h1    159    ccc     H7   4721 0.08172200   1.008000   ; qtot 0.283776
 4722         h1    159    ccc     H8   4722 0.08172200   1.008000   ; qtot 0.365498
 4723         c3    159    ccc     C5   4723 -0.22180000  12.010000   ; qtot 0.143698
 4724         hc    159    ccc     H9   4724 0.09671800   1.008000   ; qtot 0.240416
 4725         hc    159    ccc    H10   4725 0.09671800   1.008000   ; qtot 0.337134
 4726          c    159    ccc     C6   4726 0.526324  12.010000   ; qtot 1.333661
 4727          o    159    ccc     O1   4727 -0.39142825  16.000000   ; qtot 0.637155
 4728         oh    159    ccc     O2   4728 -0.56822625  16.000000   ; qtot -0.203656
 4729         ho    159    ccc    H11   4729 0.4186155   1.008000   ; qtot 0.322419
 4730         c3    159    ccc     C7   4730 -0.01321200  12.010000   ; qtot 0.309207
 4731         h1    159    ccc    H12   4731 0.08172200   1.008000   ; qtot 0.390929
 4732         h1    159    ccc    H13   4732 0.08172200   1.008000   ; qtot 0.472651
 4733         c3    159    ccc     C8   4733 -0.22180000  12.010000   ; qtot 0.250851
 4734         hc    159    ccc    H14   4734 0.09671800   1.008000   ; qtot 0.347569
 4735         hc    159    ccc    H15   4735 0.09671800   1.008000   ; qtot 0.444287
 4736          c    159    ccc     C9   4736 0.526324  12.010000   ; qtot 1.440814
 4737          o    159    ccc     O3   4737 -0.39142825  16.000000   ; qtot 0.744308
 4738         oh    159    ccc     O4   4738 -0.56822625  16.000000   ; qtot -0.096503
 4739         ho    159    ccc    H16   4739 0.4186155   1.008000   ; qtot 0.429572
 4740         os    159    ccc     O5   4740 -0.42966500  16.000000   ; qtot -0.000093
; residue  160 ccc rtp ccc q 0.0
 4741         c3    160    ccc     C1   4741 0.50749700  12.010000   ; qtot 0.507404
 4742         h1    160    ccc     H1   4742 -0.02808400   1.008000   ; qtot 0.479320
 4743         h1    160    ccc     H2   4743 -0.02808400   1.008000   ; qtot 0.451236
 4744         c3    160    ccc     C2   4744 -0.15486000  12.010000   ; qtot 0.296376
 4745         hc    160    ccc     H3   4745 0.10266400   1.008000   ; qtot 0.399040
 4746         hc    160    ccc     H4   4746 0.10266400   1.008000   ; qtot 0.501704
 4747         c3    160    ccc     C3   4747 -0.15693500  12.010000   ; qtot 0.344769
 4748         h1    160    ccc     H5   4748 0.08499200   1.008000   ; qtot 0.429761
 4749         h1    160    ccc     H6   4749 0.08499200   1.008000   ; qtot 0.514753
 4750         n3    160    ccc     N1   4750 -0.29948700  14.010000   ; qtot 0.215266
 4751         c3    160    ccc     C4   4751 -0.01321200  12.010000   ; qtot 0.202054
 4752         h1    160    ccc     H7   4752 0.08172200   1.008000   ; qtot 0.283776
 4753         h1    160    ccc     H8   4753 0.08172200   1.008000   ; qtot 0.365498
 4754         c3    160    ccc     C5   4754 -0.22180000  12.010000   ; qtot 0.143698
 4755         hc    160    ccc     H9   4755 0.09671800   1.008000   ; qtot 0.240416
 4756         hc    160    ccc    H10   4756 0.09671800   1.008000   ; qtot 0.337134
 4757          c    160    ccc     C6   4757 0.526324  12.010000   ; qtot 1.333661
 4758          o    160    ccc     O1   4758 -0.39142825  16.000000   ; qtot 0.637155
 4759         oh    160    ccc     O2   4759 -0.56822625  16.000000   ; qtot -0.203656
 4760         ho    160    ccc    H11   4760 0.4186155   1.008000   ; qtot 0.322419
 4761         c3    160    ccc     C7   4761 -0.01321200  12.010000   ; qtot 0.309207
 4762         h1    160    ccc    H12   4762 0.08172200   1.008000   ; qtot 0.390929
 4763         h1    160    ccc    H13   4763 0.08172200   1.008000   ; qtot 0.472651
 4764         c3    160    ccc     C8   4764 -0.22180000  12.010000   ; qtot 0.250851
 4765         hc    160    ccc    H14   4765 0.09671800   1.008000   ; qtot 0.347569
 4766         hc    160    ccc    H15   4766 0.09671800   1.008000   ; qtot 0.444287
 4767          c    160    ccc     C9   4767 0.526324  12.010000   ; qtot 1.440814
 4768          o    160    ccc     O3   4768 -0.39142825  16.000000   ; qtot 0.744308
 4769         oh    160    ccc     O4   4769 -0.56822625  16.000000   ; qtot -0.096503
 4770         ho    160    ccc    H16   4770 0.4186155   1.008000   ; qtot 0.429572
 4771         os    160    ccc     O5   4771 -0.42966500  16.000000   ; qtot -0.000093
; residue  161 ccc rtp ccc q 0.0
 4772         c3    161    ccc     C1   4772 0.50749700  12.010000   ; qtot 0.507404
 4773         h1    161    ccc     H1   4773 -0.02808400   1.008000   ; qtot 0.479320
 4774         h1    161    ccc     H2   4774 -0.02808400   1.008000   ; qtot 0.451236
 4775         c3    161    ccc     C2   4775 -0.15486000  12.010000   ; qtot 0.296376
 4776         hc    161    ccc     H3   4776 0.10266400   1.008000   ; qtot 0.399040
 4777         hc    161    ccc     H4   4777 0.10266400   1.008000   ; qtot 0.501704
 4778         c3    161    ccc     C3   4778 -0.15693500  12.010000   ; qtot 0.344769
 4779         h1    161    ccc     H5   4779 0.08499200   1.008000   ; qtot 0.429761
 4780         h1    161    ccc     H6   4780 0.08499200   1.008000   ; qtot 0.514753
 4781         n3    161    ccc     N1   4781 -0.29948700  14.010000   ; qtot 0.215266
 4782         c3    161    ccc     C4   4782 -0.01321200  12.010000   ; qtot 0.202054
 4783         h1    161    ccc     H7   4783 0.08172200   1.008000   ; qtot 0.283776
 4784         h1    161    ccc     H8   4784 0.08172200   1.008000   ; qtot 0.365498
 4785         c3    161    ccc     C5   4785 -0.22180000  12.010000   ; qtot 0.143698
 4786         hc    161    ccc     H9   4786 0.09671800   1.008000   ; qtot 0.240416
 4787         hc    161    ccc    H10   4787 0.09671800   1.008000   ; qtot 0.337134
 4788          c    161    ccc     C6   4788 0.526324  12.010000   ; qtot 1.333661
 4789          o    161    ccc     O1   4789 -0.39142825  16.000000   ; qtot 0.637155
 4790         oh    161    ccc     O2   4790 -0.56822625  16.000000   ; qtot -0.203656
 4791         ho    161    ccc    H11   4791 0.4186155   1.008000   ; qtot 0.322419
 4792         c3    161    ccc     C7   4792 -0.01321200  12.010000   ; qtot 0.309207
 4793         h1    161    ccc    H12   4793 0.08172200   1.008000   ; qtot 0.390929
 4794         h1    161    ccc    H13   4794 0.08172200   1.008000   ; qtot 0.472651
 4795         c3    161    ccc     C8   4795 -0.22180000  12.010000   ; qtot 0.250851
 4796         hc    161    ccc    H14   4796 0.09671800   1.008000   ; qtot 0.347569
 4797         hc    161    ccc    H15   4797 0.09671800   1.008000   ; qtot 0.444287
 4798          c    161    ccc     C9   4798 0.526324  12.010000   ; qtot 1.440814
 4799          o    161    ccc     O3   4799 -0.39142825  16.000000   ; qtot 0.744308
 4800         oh    161    ccc     O4   4800 -0.56822625  16.000000   ; qtot -0.096503
 4801         ho    161    ccc    H16   4801 0.4186155   1.008000   ; qtot 0.429572
 4802         os    161    ccc     O5   4802 -0.42966500  16.000000   ; qtot -0.000093
; residue  162 ccc rtp ccc q 0.0
 4803         c3    162    ccc     C1   4803 0.50749700  12.010000   ; qtot 0.507404
 4804         h1    162    ccc     H1   4804 -0.02808400   1.008000   ; qtot 0.479320
 4805         h1    162    ccc     H2   4805 -0.02808400   1.008000   ; qtot 0.451236
 4806         c3    162    ccc     C2   4806 -0.15486000  12.010000   ; qtot 0.296376
 4807         hc    162    ccc     H3   4807 0.10266400   1.008000   ; qtot 0.399040
 4808         hc    162    ccc     H4   4808 0.10266400   1.008000   ; qtot 0.501704
 4809         c3    162    ccc     C3   4809 -0.15693500  12.010000   ; qtot 0.344769
 4810         h1    162    ccc     H5   4810 0.08499200   1.008000   ; qtot 0.429761
 4811         h1    162    ccc     H6   4811 0.08499200   1.008000   ; qtot 0.514753
 4812         n3    162    ccc     N1   4812 -0.29948700  14.010000   ; qtot 0.215266
 4813         c3    162    ccc     C4   4813 -0.01321200  12.010000   ; qtot 0.202054
 4814         h1    162    ccc     H7   4814 0.08172200   1.008000   ; qtot 0.283776
 4815         h1    162    ccc     H8   4815 0.08172200   1.008000   ; qtot 0.365498
 4816         c3    162    ccc     C5   4816 -0.22180000  12.010000   ; qtot 0.143698
 4817         hc    162    ccc     H9   4817 0.09671800   1.008000   ; qtot 0.240416
 4818         hc    162    ccc    H10   4818 0.09671800   1.008000   ; qtot 0.337134
 4819          c    162    ccc     C6   4819 0.526324  12.010000   ; qtot 1.333661
 4820          o    162    ccc     O1   4820 -0.39142825  16.000000   ; qtot 0.637155
 4821         oh    162    ccc     O2   4821 -0.56822625  16.000000   ; qtot -0.203656
 4822         ho    162    ccc    H11   4822 0.4186155   1.008000   ; qtot 0.322419
 4823         c3    162    ccc     C7   4823 -0.01321200  12.010000   ; qtot 0.309207
 4824         h1    162    ccc    H12   4824 0.08172200   1.008000   ; qtot 0.390929
 4825         h1    162    ccc    H13   4825 0.08172200   1.008000   ; qtot 0.472651
 4826         c3    162    ccc     C8   4826 -0.22180000  12.010000   ; qtot 0.250851
 4827         hc    162    ccc    H14   4827 0.09671800   1.008000   ; qtot 0.347569
 4828         hc    162    ccc    H15   4828 0.09671800   1.008000   ; qtot 0.444287
 4829          c    162    ccc     C9   4829 0.526324  12.010000   ; qtot 1.440814
 4830          o    162    ccc     O3   4830 -0.39142825  16.000000   ; qtot 0.744308
 4831         oh    162    ccc     O4   4831 -0.56822625  16.000000   ; qtot -0.096503
 4832         ho    162    ccc    H16   4832 0.4186155   1.008000   ; qtot 0.429572
 4833         os    162    ccc     O5   4833 -0.42966500  16.000000   ; qtot -0.000093
; residue  163 ccc rtp ccc q 0.0
 4834         c3    163    ccc     C1   4834 0.50749700  12.010000   ; qtot 0.507404
 4835         h1    163    ccc     H1   4835 -0.02808400   1.008000   ; qtot 0.479320
 4836         h1    163    ccc     H2   4836 -0.02808400   1.008000   ; qtot 0.451236
 4837         c3    163    ccc     C2   4837 -0.15486000  12.010000   ; qtot 0.296376
 4838         hc    163    ccc     H3   4838 0.10266400   1.008000   ; qtot 0.399040
 4839         hc    163    ccc     H4   4839 0.10266400   1.008000   ; qtot 0.501704
 4840         c3    163    ccc     C3   4840 -0.15693500  12.010000   ; qtot 0.344769
 4841         h1    163    ccc     H5   4841 0.08499200   1.008000   ; qtot 0.429761
 4842         h1    163    ccc     H6   4842 0.08499200   1.008000   ; qtot 0.514753
 4843         n3    163    ccc     N1   4843 -0.29948700  14.010000   ; qtot 0.215266
 4844         c3    163    ccc     C4   4844 -0.01321200  12.010000   ; qtot 0.202054
 4845         h1    163    ccc     H7   4845 0.08172200   1.008000   ; qtot 0.283776
 4846         h1    163    ccc     H8   4846 0.08172200   1.008000   ; qtot 0.365498
 4847         c3    163    ccc     C5   4847 -0.22180000  12.010000   ; qtot 0.143698
 4848         hc    163    ccc     H9   4848 0.09671800   1.008000   ; qtot 0.240416
 4849         hc    163    ccc    H10   4849 0.09671800   1.008000   ; qtot 0.337134
 4850          c    163    ccc     C6   4850 0.526324  12.010000   ; qtot 1.333661
 4851          o    163    ccc     O1   4851 -0.39142825  16.000000   ; qtot 0.637155
 4852         oh    163    ccc     O2   4852 -0.56822625  16.000000   ; qtot -0.203656
 4853         ho    163    ccc    H11   4853 0.4186155   1.008000   ; qtot 0.322419
 4854         c3    163    ccc     C7   4854 -0.01321200  12.010000   ; qtot 0.309207
 4855         h1    163    ccc    H12   4855 0.08172200   1.008000   ; qtot 0.390929
 4856         h1    163    ccc    H13   4856 0.08172200   1.008000   ; qtot 0.472651
 4857         c3    163    ccc     C8   4857 -0.22180000  12.010000   ; qtot 0.250851
 4858         hc    163    ccc    H14   4858 0.09671800   1.008000   ; qtot 0.347569
 4859         hc    163    ccc    H15   4859 0.09671800   1.008000   ; qtot 0.444287
 4860          c    163    ccc     C9   4860 0.526324  12.010000   ; qtot 1.440814
 4861          o    163    ccc     O3   4861 -0.39142825  16.000000   ; qtot 0.744308
 4862         oh    163    ccc     O4   4862 -0.56822625  16.000000   ; qtot -0.096503
 4863         ho    163    ccc    H16   4863 0.4186155   1.008000   ; qtot 0.429572
 4864         os    163    ccc     O5   4864 -0.42966500  16.000000   ; qtot -0.000093
; residue  164 ccc rtp ccc q 0.0
 4865         c3    164    ccc     C1   4865 0.50749700  12.010000   ; qtot 0.507404
 4866         h1    164    ccc     H1   4866 -0.02808400   1.008000   ; qtot 0.479320
 4867         h1    164    ccc     H2   4867 -0.02808400   1.008000   ; qtot 0.451236
 4868         c3    164    ccc     C2   4868 -0.15486000  12.010000   ; qtot 0.296376
 4869         hc    164    ccc     H3   4869 0.10266400   1.008000   ; qtot 0.399040
 4870         hc    164    ccc     H4   4870 0.10266400   1.008000   ; qtot 0.501704
 4871         c3    164    ccc     C3   4871 -0.15693500  12.010000   ; qtot 0.344769
 4872         h1    164    ccc     H5   4872 0.08499200   1.008000   ; qtot 0.429761
 4873         h1    164    ccc     H6   4873 0.08499200   1.008000   ; qtot 0.514753
 4874         n3    164    ccc     N1   4874 -0.29948700  14.010000   ; qtot 0.215266
 4875         c3    164    ccc     C4   4875 -0.01321200  12.010000   ; qtot 0.202054
 4876         h1    164    ccc     H7   4876 0.08172200   1.008000   ; qtot 0.283776
 4877         h1    164    ccc     H8   4877 0.08172200   1.008000   ; qtot 0.365498
 4878         c3    164    ccc     C5   4878 -0.22180000  12.010000   ; qtot 0.143698
 4879         hc    164    ccc     H9   4879 0.09671800   1.008000   ; qtot 0.240416
 4880         hc    164    ccc    H10   4880 0.09671800   1.008000   ; qtot 0.337134
 4881          c    164    ccc     C6   4881 0.526324  12.010000   ; qtot 1.333661
 4882          o    164    ccc     O1   4882 -0.39142825  16.000000   ; qtot 0.637155
 4883         oh    164    ccc     O2   4883 -0.56822625  16.000000   ; qtot -0.203656
 4884         ho    164    ccc    H11   4884 0.4186155   1.008000   ; qtot 0.322419
 4885         c3    164    ccc     C7   4885 -0.01321200  12.010000   ; qtot 0.309207
 4886         h1    164    ccc    H12   4886 0.08172200   1.008000   ; qtot 0.390929
 4887         h1    164    ccc    H13   4887 0.08172200   1.008000   ; qtot 0.472651
 4888         c3    164    ccc     C8   4888 -0.22180000  12.010000   ; qtot 0.250851
 4889         hc    164    ccc    H14   4889 0.09671800   1.008000   ; qtot 0.347569
 4890         hc    164    ccc    H15   4890 0.09671800   1.008000   ; qtot 0.444287
 4891          c    164    ccc     C9   4891 0.526324  12.010000   ; qtot 1.440814
 4892          o    164    ccc     O3   4892 -0.39142825  16.000000   ; qtot 0.744308
 4893         oh    164    ccc     O4   4893 -0.56822625  16.000000   ; qtot -0.096503
 4894         ho    164    ccc    H16   4894 0.4186155   1.008000   ; qtot 0.429572
 4895         os    164    ccc     O5   4895 -0.42966500  16.000000   ; qtot -0.000093
; residue  165 ccc rtp ccc q 0.0
 4896         c3    165    ccc     C1   4896 0.50749700  12.010000   ; qtot 0.507404
 4897         h1    165    ccc     H1   4897 -0.02808400   1.008000   ; qtot 0.479320
 4898         h1    165    ccc     H2   4898 -0.02808400   1.008000   ; qtot 0.451236
 4899         c3    165    ccc     C2   4899 -0.15486000  12.010000   ; qtot 0.296376
 4900         hc    165    ccc     H3   4900 0.10266400   1.008000   ; qtot 0.399040
 4901         hc    165    ccc     H4   4901 0.10266400   1.008000   ; qtot 0.501704
 4902         c3    165    ccc     C3   4902 -0.15693500  12.010000   ; qtot 0.344769
 4903         h1    165    ccc     H5   4903 0.08499200   1.008000   ; qtot 0.429761
 4904         h1    165    ccc     H6   4904 0.08499200   1.008000   ; qtot 0.514753
 4905         n3    165    ccc     N1   4905 -0.29948700  14.010000   ; qtot 0.215266
 4906         c3    165    ccc     C4   4906 -0.01321200  12.010000   ; qtot 0.202054
 4907         h1    165    ccc     H7   4907 0.08172200   1.008000   ; qtot 0.283776
 4908         h1    165    ccc     H8   4908 0.08172200   1.008000   ; qtot 0.365498
 4909         c3    165    ccc     C5   4909 -0.22180000  12.010000   ; qtot 0.143698
 4910         hc    165    ccc     H9   4910 0.09671800   1.008000   ; qtot 0.240416
 4911         hc    165    ccc    H10   4911 0.09671800   1.008000   ; qtot 0.337134
 4912          c    165    ccc     C6   4912 0.526324  12.010000   ; qtot 1.333661
 4913          o    165    ccc     O1   4913 -0.39142825  16.000000   ; qtot 0.637155
 4914         oh    165    ccc     O2   4914 -0.56822625  16.000000   ; qtot -0.203656
 4915         ho    165    ccc    H11   4915 0.4186155   1.008000   ; qtot 0.322419
 4916         c3    165    ccc     C7   4916 -0.01321200  12.010000   ; qtot 0.309207
 4917         h1    165    ccc    H12   4917 0.08172200   1.008000   ; qtot 0.390929
 4918         h1    165    ccc    H13   4918 0.08172200   1.008000   ; qtot 0.472651
 4919         c3    165    ccc     C8   4919 -0.22180000  12.010000   ; qtot 0.250851
 4920         hc    165    ccc    H14   4920 0.09671800   1.008000   ; qtot 0.347569
 4921         hc    165    ccc    H15   4921 0.09671800   1.008000   ; qtot 0.444287
 4922          c    165    ccc     C9   4922 0.526324  12.010000   ; qtot 1.440814
 4923          o    165    ccc     O3   4923 -0.39142825  16.000000   ; qtot 0.744308
 4924         oh    165    ccc     O4   4924 -0.56822625  16.000000   ; qtot -0.096503
 4925         ho    165    ccc    H16   4925 0.4186155   1.008000   ; qtot 0.429572
 4926         os    165    ccc     O5   4926 -0.42966500  16.000000   ; qtot -0.000093
; residue  166 ccc rtp ccc q 0.0
 4927         c3    166    ccc     C1   4927 0.50749700  12.010000   ; qtot 0.507404
 4928         h1    166    ccc     H1   4928 -0.02808400   1.008000   ; qtot 0.479320
 4929         h1    166    ccc     H2   4929 -0.02808400   1.008000   ; qtot 0.451236
 4930         c3    166    ccc     C2   4930 -0.15486000  12.010000   ; qtot 0.296376
 4931         hc    166    ccc     H3   4931 0.10266400   1.008000   ; qtot 0.399040
 4932         hc    166    ccc     H4   4932 0.10266400   1.008000   ; qtot 0.501704
 4933         c3    166    ccc     C3   4933 -0.15693500  12.010000   ; qtot 0.344769
 4934         h1    166    ccc     H5   4934 0.08499200   1.008000   ; qtot 0.429761
 4935         h1    166    ccc     H6   4935 0.08499200   1.008000   ; qtot 0.514753
 4936         n3    166    ccc     N1   4936 -0.29948700  14.010000   ; qtot 0.215266
 4937         c3    166    ccc     C4   4937 -0.01321200  12.010000   ; qtot 0.202054
 4938         h1    166    ccc     H7   4938 0.08172200   1.008000   ; qtot 0.283776
 4939         h1    166    ccc     H8   4939 0.08172200   1.008000   ; qtot 0.365498
 4940         c3    166    ccc     C5   4940 -0.22180000  12.010000   ; qtot 0.143698
 4941         hc    166    ccc     H9   4941 0.09671800   1.008000   ; qtot 0.240416
 4942         hc    166    ccc    H10   4942 0.09671800   1.008000   ; qtot 0.337134
 4943          c    166    ccc     C6   4943 0.526324  12.010000   ; qtot 1.333661
 4944          o    166    ccc     O1   4944 -0.39142825  16.000000   ; qtot 0.637155
 4945         oh    166    ccc     O2   4945 -0.56822625  16.000000   ; qtot -0.203656
 4946         ho    166    ccc    H11   4946 0.4186155   1.008000   ; qtot 0.322419
 4947         c3    166    ccc     C7   4947 -0.01321200  12.010000   ; qtot 0.309207
 4948         h1    166    ccc    H12   4948 0.08172200   1.008000   ; qtot 0.390929
 4949         h1    166    ccc    H13   4949 0.08172200   1.008000   ; qtot 0.472651
 4950         c3    166    ccc     C8   4950 -0.22180000  12.010000   ; qtot 0.250851
 4951         hc    166    ccc    H14   4951 0.09671800   1.008000   ; qtot 0.347569
 4952         hc    166    ccc    H15   4952 0.09671800   1.008000   ; qtot 0.444287
 4953          c    166    ccc     C9   4953 0.526324  12.010000   ; qtot 1.440814
 4954          o    166    ccc     O3   4954 -0.39142825  16.000000   ; qtot 0.744308
 4955         oh    166    ccc     O4   4955 -0.56822625  16.000000   ; qtot -0.096503
 4956         ho    166    ccc    H16   4956 0.4186155   1.008000   ; qtot 0.429572
 4957         os    166    ccc     O5   4957 -0.42966500  16.000000   ; qtot -0.000093
; residue  167 ccc rtp ccc q 0.0
 4958         c3    167    ccc     C1   4958 0.50749700  12.010000   ; qtot 0.507404
 4959         h1    167    ccc     H1   4959 -0.02808400   1.008000   ; qtot 0.479320
 4960         h1    167    ccc     H2   4960 -0.02808400   1.008000   ; qtot 0.451236
 4961         c3    167    ccc     C2   4961 -0.15486000  12.010000   ; qtot 0.296376
 4962         hc    167    ccc     H3   4962 0.10266400   1.008000   ; qtot 0.399040
 4963         hc    167    ccc     H4   4963 0.10266400   1.008000   ; qtot 0.501704
 4964         c3    167    ccc     C3   4964 -0.15693500  12.010000   ; qtot 0.344769
 4965         h1    167    ccc     H5   4965 0.08499200   1.008000   ; qtot 0.429761
 4966         h1    167    ccc     H6   4966 0.08499200   1.008000   ; qtot 0.514753
 4967         n3    167    ccc     N1   4967 -0.29948700  14.010000   ; qtot 0.215266
 4968         c3    167    ccc     C4   4968 -0.01321200  12.010000   ; qtot 0.202054
 4969         h1    167    ccc     H7   4969 0.08172200   1.008000   ; qtot 0.283776
 4970         h1    167    ccc     H8   4970 0.08172200   1.008000   ; qtot 0.365498
 4971         c3    167    ccc     C5   4971 -0.22180000  12.010000   ; qtot 0.143698
 4972         hc    167    ccc     H9   4972 0.09671800   1.008000   ; qtot 0.240416
 4973         hc    167    ccc    H10   4973 0.09671800   1.008000   ; qtot 0.337134
 4974          c    167    ccc     C6   4974 0.526324  12.010000   ; qtot 1.333661
 4975          o    167    ccc     O1   4975 -0.39142825  16.000000   ; qtot 0.637155
 4976         oh    167    ccc     O2   4976 -0.56822625  16.000000   ; qtot -0.203656
 4977         ho    167    ccc    H11   4977 0.4186155   1.008000   ; qtot 0.322419
 4978         c3    167    ccc     C7   4978 -0.01321200  12.010000   ; qtot 0.309207
 4979         h1    167    ccc    H12   4979 0.08172200   1.008000   ; qtot 0.390929
 4980         h1    167    ccc    H13   4980 0.08172200   1.008000   ; qtot 0.472651
 4981         c3    167    ccc     C8   4981 -0.22180000  12.010000   ; qtot 0.250851
 4982         hc    167    ccc    H14   4982 0.09671800   1.008000   ; qtot 0.347569
 4983         hc    167    ccc    H15   4983 0.09671800   1.008000   ; qtot 0.444287
 4984          c    167    ccc     C9   4984 0.526324  12.010000   ; qtot 1.440814
 4985          o    167    ccc     O3   4985 -0.39142825  16.000000   ; qtot 0.744308
 4986         oh    167    ccc     O4   4986 -0.56822625  16.000000   ; qtot -0.096503
 4987         ho    167    ccc    H16   4987 0.4186155   1.008000   ; qtot 0.429572
 4988         os    167    ccc     O5   4988 -0.42966500  16.000000   ; qtot -0.000093
; residue  168 ccc rtp ccc q 0.0
 4989         c3    168    ccc     C1   4989 0.50749700  12.010000   ; qtot 0.507404
 4990         h1    168    ccc     H1   4990 -0.02808400   1.008000   ; qtot 0.479320
 4991         h1    168    ccc     H2   4991 -0.02808400   1.008000   ; qtot 0.451236
 4992         c3    168    ccc     C2   4992 -0.15486000  12.010000   ; qtot 0.296376
 4993         hc    168    ccc     H3   4993 0.10266400   1.008000   ; qtot 0.399040
 4994         hc    168    ccc     H4   4994 0.10266400   1.008000   ; qtot 0.501704
 4995         c3    168    ccc     C3   4995 -0.15693500  12.010000   ; qtot 0.344769
 4996         h1    168    ccc     H5   4996 0.08499200   1.008000   ; qtot 0.429761
 4997         h1    168    ccc     H6   4997 0.08499200   1.008000   ; qtot 0.514753
 4998         n3    168    ccc     N1   4998 -0.29948700  14.010000   ; qtot 0.215266
 4999         c3    168    ccc     C4   4999 -0.01321200  12.010000   ; qtot 0.202054
 5000         h1    168    ccc     H7   5000 0.08172200   1.008000   ; qtot 0.283776
 5001         h1    168    ccc     H8   5001 0.08172200   1.008000   ; qtot 0.365498
 5002         c3    168    ccc     C5   5002 -0.22180000  12.010000   ; qtot 0.143698
 5003         hc    168    ccc     H9   5003 0.09671800   1.008000   ; qtot 0.240416
 5004         hc    168    ccc    H10   5004 0.09671800   1.008000   ; qtot 0.337134
 5005          c    168    ccc     C6   5005 0.526324  12.010000   ; qtot 1.333661
 5006          o    168    ccc     O1   5006 -0.39142825  16.000000   ; qtot 0.637155
 5007         oh    168    ccc     O2   5007 -0.56822625  16.000000   ; qtot -0.203656
 5008         ho    168    ccc    H11   5008 0.4186155   1.008000   ; qtot 0.322419
 5009         c3    168    ccc     C7   5009 -0.01321200  12.010000   ; qtot 0.309207
 5010         h1    168    ccc    H12   5010 0.08172200   1.008000   ; qtot 0.390929
 5011         h1    168    ccc    H13   5011 0.08172200   1.008000   ; qtot 0.472651
 5012         c3    168    ccc     C8   5012 -0.22180000  12.010000   ; qtot 0.250851
 5013         hc    168    ccc    H14   5013 0.09671800   1.008000   ; qtot 0.347569
 5014         hc    168    ccc    H15   5014 0.09671800   1.008000   ; qtot 0.444287
 5015          c    168    ccc     C9   5015 0.526324  12.010000   ; qtot 1.440814
 5016          o    168    ccc     O3   5016 -0.39142825  16.000000   ; qtot 0.744308
 5017         oh    168    ccc     O4   5017 -0.56822625  16.000000   ; qtot -0.096503
 5018         ho    168    ccc    H16   5018 0.4186155   1.008000   ; qtot 0.429572
 5019         os    168    ccc     O5   5019 -0.42966500  16.000000   ; qtot -0.000093
; residue  169 ccc rtp ccc q 0.0
 5020         c3    169    ccc     C1   5020 0.50749700  12.010000   ; qtot 0.507404
 5021         h1    169    ccc     H1   5021 -0.02808400   1.008000   ; qtot 0.479320
 5022         h1    169    ccc     H2   5022 -0.02808400   1.008000   ; qtot 0.451236
 5023         c3    169    ccc     C2   5023 -0.15486000  12.010000   ; qtot 0.296376
 5024         hc    169    ccc     H3   5024 0.10266400   1.008000   ; qtot 0.399040
 5025         hc    169    ccc     H4   5025 0.10266400   1.008000   ; qtot 0.501704
 5026         c3    169    ccc     C3   5026 -0.15693500  12.010000   ; qtot 0.344769
 5027         h1    169    ccc     H5   5027 0.08499200   1.008000   ; qtot 0.429761
 5028         h1    169    ccc     H6   5028 0.08499200   1.008000   ; qtot 0.514753
 5029         n3    169    ccc     N1   5029 -0.29948700  14.010000   ; qtot 0.215266
 5030         c3    169    ccc     C4   5030 -0.01321200  12.010000   ; qtot 0.202054
 5031         h1    169    ccc     H7   5031 0.08172200   1.008000   ; qtot 0.283776
 5032         h1    169    ccc     H8   5032 0.08172200   1.008000   ; qtot 0.365498
 5033         c3    169    ccc     C5   5033 -0.22180000  12.010000   ; qtot 0.143698
 5034         hc    169    ccc     H9   5034 0.09671800   1.008000   ; qtot 0.240416
 5035         hc    169    ccc    H10   5035 0.09671800   1.008000   ; qtot 0.337134
 5036          c    169    ccc     C6   5036 0.526324  12.010000   ; qtot 1.333661
 5037          o    169    ccc     O1   5037 -0.39142825  16.000000   ; qtot 0.637155
 5038         oh    169    ccc     O2   5038 -0.56822625  16.000000   ; qtot -0.203656
 5039         ho    169    ccc    H11   5039 0.4186155   1.008000   ; qtot 0.322419
 5040         c3    169    ccc     C7   5040 -0.01321200  12.010000   ; qtot 0.309207
 5041         h1    169    ccc    H12   5041 0.08172200   1.008000   ; qtot 0.390929
 5042         h1    169    ccc    H13   5042 0.08172200   1.008000   ; qtot 0.472651
 5043         c3    169    ccc     C8   5043 -0.22180000  12.010000   ; qtot 0.250851
 5044         hc    169    ccc    H14   5044 0.09671800   1.008000   ; qtot 0.347569
 5045         hc    169    ccc    H15   5045 0.09671800   1.008000   ; qtot 0.444287
 5046          c    169    ccc     C9   5046 0.526324  12.010000   ; qtot 1.440814
 5047          o    169    ccc     O3   5047 -0.39142825  16.000000   ; qtot 0.744308
 5048         oh    169    ccc     O4   5048 -0.56822625  16.000000   ; qtot -0.096503
 5049         ho    169    ccc    H16   5049 0.4186155   1.008000   ; qtot 0.429572
 5050         os    169    ccc     O5   5050 -0.42966500  16.000000   ; qtot -0.000093
; residue  170 ccc rtp ccc q 0.0
 5051         c3    170    ccc     C1   5051 0.50749700  12.010000   ; qtot 0.507404
 5052         h1    170    ccc     H1   5052 -0.02808400   1.008000   ; qtot 0.479320
 5053         h1    170    ccc     H2   5053 -0.02808400   1.008000   ; qtot 0.451236
 5054         c3    170    ccc     C2   5054 -0.15486000  12.010000   ; qtot 0.296376
 5055         hc    170    ccc     H3   5055 0.10266400   1.008000   ; qtot 0.399040
 5056         hc    170    ccc     H4   5056 0.10266400   1.008000   ; qtot 0.501704
 5057         c3    170    ccc     C3   5057 -0.15693500  12.010000   ; qtot 0.344769
 5058         h1    170    ccc     H5   5058 0.08499200   1.008000   ; qtot 0.429761
 5059         h1    170    ccc     H6   5059 0.08499200   1.008000   ; qtot 0.514753
 5060         n3    170    ccc     N1   5060 -0.29948700  14.010000   ; qtot 0.215266
 5061         c3    170    ccc     C4   5061 -0.01321200  12.010000   ; qtot 0.202054
 5062         h1    170    ccc     H7   5062 0.08172200   1.008000   ; qtot 0.283776
 5063         h1    170    ccc     H8   5063 0.08172200   1.008000   ; qtot 0.365498
 5064         c3    170    ccc     C5   5064 -0.22180000  12.010000   ; qtot 0.143698
 5065         hc    170    ccc     H9   5065 0.09671800   1.008000   ; qtot 0.240416
 5066         hc    170    ccc    H10   5066 0.09671800   1.008000   ; qtot 0.337134
 5067          c    170    ccc     C6   5067 0.526324  12.010000   ; qtot 1.333661
 5068          o    170    ccc     O1   5068 -0.39142825  16.000000   ; qtot 0.637155
 5069         oh    170    ccc     O2   5069 -0.56822625  16.000000   ; qtot -0.203656
 5070         ho    170    ccc    H11   5070 0.4186155   1.008000   ; qtot 0.322419
 5071         c3    170    ccc     C7   5071 -0.01321200  12.010000   ; qtot 0.309207
 5072         h1    170    ccc    H12   5072 0.08172200   1.008000   ; qtot 0.390929
 5073         h1    170    ccc    H13   5073 0.08172200   1.008000   ; qtot 0.472651
 5074         c3    170    ccc     C8   5074 -0.22180000  12.010000   ; qtot 0.250851
 5075         hc    170    ccc    H14   5075 0.09671800   1.008000   ; qtot 0.347569
 5076         hc    170    ccc    H15   5076 0.09671800   1.008000   ; qtot 0.444287
 5077          c    170    ccc     C9   5077 0.526324  12.010000   ; qtot 1.440814
 5078          o    170    ccc     O3   5078 -0.39142825  16.000000   ; qtot 0.744308
 5079         oh    170    ccc     O4   5079 -0.56822625  16.000000   ; qtot -0.096503
 5080         ho    170    ccc    H16   5080 0.4186155   1.008000   ; qtot 0.429572
 5081         os    170    ccc     O5   5081 -0.42966500  16.000000   ; qtot -0.000093
; residue  171 ccc rtp ccc q 0.0
 5082         c3    171    ccc     C1   5082 0.50749700  12.010000   ; qtot 0.507404
 5083         h1    171    ccc     H1   5083 -0.02808400   1.008000   ; qtot 0.479320
 5084         h1    171    ccc     H2   5084 -0.02808400   1.008000   ; qtot 0.451236
 5085         c3    171    ccc     C2   5085 -0.15486000  12.010000   ; qtot 0.296376
 5086         hc    171    ccc     H3   5086 0.10266400   1.008000   ; qtot 0.399040
 5087         hc    171    ccc     H4   5087 0.10266400   1.008000   ; qtot 0.501704
 5088         c3    171    ccc     C3   5088 -0.15693500  12.010000   ; qtot 0.344769
 5089         h1    171    ccc     H5   5089 0.08499200   1.008000   ; qtot 0.429761
 5090         h1    171    ccc     H6   5090 0.08499200   1.008000   ; qtot 0.514753
 5091         n3    171    ccc     N1   5091 -0.29948700  14.010000   ; qtot 0.215266
 5092         c3    171    ccc     C4   5092 -0.01321200  12.010000   ; qtot 0.202054
 5093         h1    171    ccc     H7   5093 0.08172200   1.008000   ; qtot 0.283776
 5094         h1    171    ccc     H8   5094 0.08172200   1.008000   ; qtot 0.365498
 5095         c3    171    ccc     C5   5095 -0.22180000  12.010000   ; qtot 0.143698
 5096         hc    171    ccc     H9   5096 0.09671800   1.008000   ; qtot 0.240416
 5097         hc    171    ccc    H10   5097 0.09671800   1.008000   ; qtot 0.337134
 5098          c    171    ccc     C6   5098 0.526324  12.010000   ; qtot 1.333661
 5099          o    171    ccc     O1   5099 -0.39142825  16.000000   ; qtot 0.637155
 5100         oh    171    ccc     O2   5100 -0.56822625  16.000000   ; qtot -0.203656
 5101         ho    171    ccc    H11   5101 0.4186155   1.008000   ; qtot 0.322419
 5102         c3    171    ccc     C7   5102 -0.01321200  12.010000   ; qtot 0.309207
 5103         h1    171    ccc    H12   5103 0.08172200   1.008000   ; qtot 0.390929
 5104         h1    171    ccc    H13   5104 0.08172200   1.008000   ; qtot 0.472651
 5105         c3    171    ccc     C8   5105 -0.22180000  12.010000   ; qtot 0.250851
 5106         hc    171    ccc    H14   5106 0.09671800   1.008000   ; qtot 0.347569
 5107         hc    171    ccc    H15   5107 0.09671800   1.008000   ; qtot 0.444287
 5108          c    171    ccc     C9   5108 0.526324  12.010000   ; qtot 1.440814
 5109          o    171    ccc     O3   5109 -0.39142825  16.000000   ; qtot 0.744308
 5110         oh    171    ccc     O4   5110 -0.56822625  16.000000   ; qtot -0.096503
 5111         ho    171    ccc    H16   5111 0.4186155   1.008000   ; qtot 0.429572
 5112         os    171    ccc     O5   5112 -0.42966500  16.000000   ; qtot -0.000093
; residue  172 ccc rtp ccc q 0.0
 5113         c3    172    ccc     C1   5113 0.50749700  12.010000   ; qtot 0.507404
 5114         h1    172    ccc     H1   5114 -0.02808400   1.008000   ; qtot 0.479320
 5115         h1    172    ccc     H2   5115 -0.02808400   1.008000   ; qtot 0.451236
 5116         c3    172    ccc     C2   5116 -0.15486000  12.010000   ; qtot 0.296376
 5117         hc    172    ccc     H3   5117 0.10266400   1.008000   ; qtot 0.399040
 5118         hc    172    ccc     H4   5118 0.10266400   1.008000   ; qtot 0.501704
 5119         c3    172    ccc     C3   5119 -0.15693500  12.010000   ; qtot 0.344769
 5120         h1    172    ccc     H5   5120 0.08499200   1.008000   ; qtot 0.429761
 5121         h1    172    ccc     H6   5121 0.08499200   1.008000   ; qtot 0.514753
 5122         n3    172    ccc     N1   5122 -0.29948700  14.010000   ; qtot 0.215266
 5123         c3    172    ccc     C4   5123 -0.01321200  12.010000   ; qtot 0.202054
 5124         h1    172    ccc     H7   5124 0.08172200   1.008000   ; qtot 0.283776
 5125         h1    172    ccc     H8   5125 0.08172200   1.008000   ; qtot 0.365498
 5126         c3    172    ccc     C5   5126 -0.22180000  12.010000   ; qtot 0.143698
 5127         hc    172    ccc     H9   5127 0.09671800   1.008000   ; qtot 0.240416
 5128         hc    172    ccc    H10   5128 0.09671800   1.008000   ; qtot 0.337134
 5129          c    172    ccc     C6   5129 0.526324  12.010000   ; qtot 1.333661
 5130          o    172    ccc     O1   5130 -0.39142825  16.000000   ; qtot 0.637155
 5131         oh    172    ccc     O2   5131 -0.56822625  16.000000   ; qtot -0.203656
 5132         ho    172    ccc    H11   5132 0.4186155   1.008000   ; qtot 0.322419
 5133         c3    172    ccc     C7   5133 -0.01321200  12.010000   ; qtot 0.309207
 5134         h1    172    ccc    H12   5134 0.08172200   1.008000   ; qtot 0.390929
 5135         h1    172    ccc    H13   5135 0.08172200   1.008000   ; qtot 0.472651
 5136         c3    172    ccc     C8   5136 -0.22180000  12.010000   ; qtot 0.250851
 5137         hc    172    ccc    H14   5137 0.09671800   1.008000   ; qtot 0.347569
 5138         hc    172    ccc    H15   5138 0.09671800   1.008000   ; qtot 0.444287
 5139          c    172    ccc     C9   5139 0.526324  12.010000   ; qtot 1.440814
 5140          o    172    ccc     O3   5140 -0.39142825  16.000000   ; qtot 0.744308
 5141         oh    172    ccc     O4   5141 -0.56822625  16.000000   ; qtot -0.096503
 5142         ho    172    ccc    H16   5142 0.4186155   1.008000   ; qtot 0.429572
 5143         os    172    ccc     O5   5143 -0.42966500  16.000000   ; qtot -0.000093
; residue  173 ccc rtp ccc q 0.0
 5144         c3    173    ccc     C1   5144 0.50749700  12.010000   ; qtot 0.507404
 5145         h1    173    ccc     H1   5145 -0.02808400   1.008000   ; qtot 0.479320
 5146         h1    173    ccc     H2   5146 -0.02808400   1.008000   ; qtot 0.451236
 5147         c3    173    ccc     C2   5147 -0.15486000  12.010000   ; qtot 0.296376
 5148         hc    173    ccc     H3   5148 0.10266400   1.008000   ; qtot 0.399040
 5149         hc    173    ccc     H4   5149 0.10266400   1.008000   ; qtot 0.501704
 5150         c3    173    ccc     C3   5150 -0.15693500  12.010000   ; qtot 0.344769
 5151         h1    173    ccc     H5   5151 0.08499200   1.008000   ; qtot 0.429761
 5152         h1    173    ccc     H6   5152 0.08499200   1.008000   ; qtot 0.514753
 5153         n3    173    ccc     N1   5153 -0.29948700  14.010000   ; qtot 0.215266
 5154         c3    173    ccc     C4   5154 -0.01321200  12.010000   ; qtot 0.202054
 5155         h1    173    ccc     H7   5155 0.08172200   1.008000   ; qtot 0.283776
 5156         h1    173    ccc     H8   5156 0.08172200   1.008000   ; qtot 0.365498
 5157         c3    173    ccc     C5   5157 -0.22180000  12.010000   ; qtot 0.143698
 5158         hc    173    ccc     H9   5158 0.09671800   1.008000   ; qtot 0.240416
 5159         hc    173    ccc    H10   5159 0.09671800   1.008000   ; qtot 0.337134
 5160          c    173    ccc     C6   5160 0.526324  12.010000   ; qtot 1.333661
 5161          o    173    ccc     O1   5161 -0.39142825  16.000000   ; qtot 0.637155
 5162         oh    173    ccc     O2   5162 -0.56822625  16.000000   ; qtot -0.203656
 5163         ho    173    ccc    H11   5163 0.4186155   1.008000   ; qtot 0.322419
 5164         c3    173    ccc     C7   5164 -0.01321200  12.010000   ; qtot 0.309207
 5165         h1    173    ccc    H12   5165 0.08172200   1.008000   ; qtot 0.390929
 5166         h1    173    ccc    H13   5166 0.08172200   1.008000   ; qtot 0.472651
 5167         c3    173    ccc     C8   5167 -0.22180000  12.010000   ; qtot 0.250851
 5168         hc    173    ccc    H14   5168 0.09671800   1.008000   ; qtot 0.347569
 5169         hc    173    ccc    H15   5169 0.09671800   1.008000   ; qtot 0.444287
 5170          c    173    ccc     C9   5170 0.526324  12.010000   ; qtot 1.440814
 5171          o    173    ccc     O3   5171 -0.39142825  16.000000   ; qtot 0.744308
 5172         oh    173    ccc     O4   5172 -0.56822625  16.000000   ; qtot -0.096503
 5173         ho    173    ccc    H16   5173 0.4186155   1.008000   ; qtot 0.429572
 5174         os    173    ccc     O5   5174 -0.42966500  16.000000   ; qtot -0.000093
; residue  174 ccc rtp ccc q 0.0
 5175         c3    174    ccc     C1   5175 0.50749700  12.010000   ; qtot 0.507404
 5176         h1    174    ccc     H1   5176 -0.02808400   1.008000   ; qtot 0.479320
 5177         h1    174    ccc     H2   5177 -0.02808400   1.008000   ; qtot 0.451236
 5178         c3    174    ccc     C2   5178 -0.15486000  12.010000   ; qtot 0.296376
 5179         hc    174    ccc     H3   5179 0.10266400   1.008000   ; qtot 0.399040
 5180         hc    174    ccc     H4   5180 0.10266400   1.008000   ; qtot 0.501704
 5181         c3    174    ccc     C3   5181 -0.15693500  12.010000   ; qtot 0.344769
 5182         h1    174    ccc     H5   5182 0.08499200   1.008000   ; qtot 0.429761
 5183         h1    174    ccc     H6   5183 0.08499200   1.008000   ; qtot 0.514753
 5184         n3    174    ccc     N1   5184 -0.29948700  14.010000   ; qtot 0.215266
 5185         c3    174    ccc     C4   5185 -0.01321200  12.010000   ; qtot 0.202054
 5186         h1    174    ccc     H7   5186 0.08172200   1.008000   ; qtot 0.283776
 5187         h1    174    ccc     H8   5187 0.08172200   1.008000   ; qtot 0.365498
 5188         c3    174    ccc     C5   5188 -0.22180000  12.010000   ; qtot 0.143698
 5189         hc    174    ccc     H9   5189 0.09671800   1.008000   ; qtot 0.240416
 5190         hc    174    ccc    H10   5190 0.09671800   1.008000   ; qtot 0.337134
 5191          c    174    ccc     C6   5191 0.526324  12.010000   ; qtot 1.333661
 5192          o    174    ccc     O1   5192 -0.39142825  16.000000   ; qtot 0.637155
 5193         oh    174    ccc     O2   5193 -0.56822625  16.000000   ; qtot -0.203656
 5194         ho    174    ccc    H11   5194 0.4186155   1.008000   ; qtot 0.322419
 5195         c3    174    ccc     C7   5195 -0.01321200  12.010000   ; qtot 0.309207
 5196         h1    174    ccc    H12   5196 0.08172200   1.008000   ; qtot 0.390929
 5197         h1    174    ccc    H13   5197 0.08172200   1.008000   ; qtot 0.472651
 5198         c3    174    ccc     C8   5198 -0.22180000  12.010000   ; qtot 0.250851
 5199         hc    174    ccc    H14   5199 0.09671800   1.008000   ; qtot 0.347569
 5200         hc    174    ccc    H15   5200 0.09671800   1.008000   ; qtot 0.444287
 5201          c    174    ccc     C9   5201 0.526324  12.010000   ; qtot 1.440814
 5202          o    174    ccc     O3   5202 -0.39142825  16.000000   ; qtot 0.744308
 5203         oh    174    ccc     O4   5203 -0.56822625  16.000000   ; qtot -0.096503
 5204         ho    174    ccc    H16   5204 0.4186155   1.008000   ; qtot 0.429572
 5205         os    174    ccc     O5   5205 -0.42966500  16.000000   ; qtot -0.000093
; residue  175 ccc rtp ccc q 0.0
 5206         c3    175    ccc     C1   5206 0.50749700  12.010000   ; qtot 0.507404
 5207         h1    175    ccc     H1   5207 -0.02808400   1.008000   ; qtot 0.479320
 5208         h1    175    ccc     H2   5208 -0.02808400   1.008000   ; qtot 0.451236
 5209         c3    175    ccc     C2   5209 -0.15486000  12.010000   ; qtot 0.296376
 5210         hc    175    ccc     H3   5210 0.10266400   1.008000   ; qtot 0.399040
 5211         hc    175    ccc     H4   5211 0.10266400   1.008000   ; qtot 0.501704
 5212         c3    175    ccc     C3   5212 -0.15693500  12.010000   ; qtot 0.344769
 5213         h1    175    ccc     H5   5213 0.08499200   1.008000   ; qtot 0.429761
 5214         h1    175    ccc     H6   5214 0.08499200   1.008000   ; qtot 0.514753
 5215         n3    175    ccc     N1   5215 -0.29948700  14.010000   ; qtot 0.215266
 5216         c3    175    ccc     C4   5216 -0.01321200  12.010000   ; qtot 0.202054
 5217         h1    175    ccc     H7   5217 0.08172200   1.008000   ; qtot 0.283776
 5218         h1    175    ccc     H8   5218 0.08172200   1.008000   ; qtot 0.365498
 5219         c3    175    ccc     C5   5219 -0.22180000  12.010000   ; qtot 0.143698
 5220         hc    175    ccc     H9   5220 0.09671800   1.008000   ; qtot 0.240416
 5221         hc    175    ccc    H10   5221 0.09671800   1.008000   ; qtot 0.337134
 5222          c    175    ccc     C6   5222 0.526324  12.010000   ; qtot 1.333661
 5223          o    175    ccc     O1   5223 -0.39142825  16.000000   ; qtot 0.637155
 5224         oh    175    ccc     O2   5224 -0.56822625  16.000000   ; qtot -0.203656
 5225         ho    175    ccc    H11   5225 0.4186155   1.008000   ; qtot 0.322419
 5226         c3    175    ccc     C7   5226 -0.01321200  12.010000   ; qtot 0.309207
 5227         h1    175    ccc    H12   5227 0.08172200   1.008000   ; qtot 0.390929
 5228         h1    175    ccc    H13   5228 0.08172200   1.008000   ; qtot 0.472651
 5229         c3    175    ccc     C8   5229 -0.22180000  12.010000   ; qtot 0.250851
 5230         hc    175    ccc    H14   5230 0.09671800   1.008000   ; qtot 0.347569
 5231         hc    175    ccc    H15   5231 0.09671800   1.008000   ; qtot 0.444287
 5232          c    175    ccc     C9   5232 0.526324  12.010000   ; qtot 1.440814
 5233          o    175    ccc     O3   5233 -0.39142825  16.000000   ; qtot 0.744308
 5234         oh    175    ccc     O4   5234 -0.56822625  16.000000   ; qtot -0.096503
 5235         ho    175    ccc    H16   5235 0.4186155   1.008000   ; qtot 0.429572
 5236         os    175    ccc     O5   5236 -0.42966500  16.000000   ; qtot -0.000093
; residue  176 ccc rtp ccc q 0.0
 5237         c3    176    ccc     C1   5237 0.50749700  12.010000   ; qtot 0.507404
 5238         h1    176    ccc     H1   5238 -0.02808400   1.008000   ; qtot 0.479320
 5239         h1    176    ccc     H2   5239 -0.02808400   1.008000   ; qtot 0.451236
 5240         c3    176    ccc     C2   5240 -0.15486000  12.010000   ; qtot 0.296376
 5241         hc    176    ccc     H3   5241 0.10266400   1.008000   ; qtot 0.399040
 5242         hc    176    ccc     H4   5242 0.10266400   1.008000   ; qtot 0.501704
 5243         c3    176    ccc     C3   5243 -0.15693500  12.010000   ; qtot 0.344769
 5244         h1    176    ccc     H5   5244 0.08499200   1.008000   ; qtot 0.429761
 5245         h1    176    ccc     H6   5245 0.08499200   1.008000   ; qtot 0.514753
 5246         n3    176    ccc     N1   5246 -0.29948700  14.010000   ; qtot 0.215266
 5247         c3    176    ccc     C4   5247 -0.01321200  12.010000   ; qtot 0.202054
 5248         h1    176    ccc     H7   5248 0.08172200   1.008000   ; qtot 0.283776
 5249         h1    176    ccc     H8   5249 0.08172200   1.008000   ; qtot 0.365498
 5250         c3    176    ccc     C5   5250 -0.22180000  12.010000   ; qtot 0.143698
 5251         hc    176    ccc     H9   5251 0.09671800   1.008000   ; qtot 0.240416
 5252         hc    176    ccc    H10   5252 0.09671800   1.008000   ; qtot 0.337134
 5253          c    176    ccc     C6   5253 0.526324  12.010000   ; qtot 1.333661
 5254          o    176    ccc     O1   5254 -0.39142825  16.000000   ; qtot 0.637155
 5255         oh    176    ccc     O2   5255 -0.56822625  16.000000   ; qtot -0.203656
 5256         ho    176    ccc    H11   5256 0.4186155   1.008000   ; qtot 0.322419
 5257         c3    176    ccc     C7   5257 -0.01321200  12.010000   ; qtot 0.309207
 5258         h1    176    ccc    H12   5258 0.08172200   1.008000   ; qtot 0.390929
 5259         h1    176    ccc    H13   5259 0.08172200   1.008000   ; qtot 0.472651
 5260         c3    176    ccc     C8   5260 -0.22180000  12.010000   ; qtot 0.250851
 5261         hc    176    ccc    H14   5261 0.09671800   1.008000   ; qtot 0.347569
 5262         hc    176    ccc    H15   5262 0.09671800   1.008000   ; qtot 0.444287
 5263          c    176    ccc     C9   5263 0.526324  12.010000   ; qtot 1.440814
 5264          o    176    ccc     O3   5264 -0.39142825  16.000000   ; qtot 0.744308
 5265         oh    176    ccc     O4   5265 -0.56822625  16.000000   ; qtot -0.096503
 5266         ho    176    ccc    H16   5266 0.4186155   1.008000   ; qtot 0.429572
 5267         os    176    ccc     O5   5267 -0.42966500  16.000000   ; qtot -0.000093
; residue  177 ccc rtp ccc q 0.0
 5268         c3    177    ccc     C1   5268 0.50749700  12.010000   ; qtot 0.507404
 5269         h1    177    ccc     H1   5269 -0.02808400   1.008000   ; qtot 0.479320
 5270         h1    177    ccc     H2   5270 -0.02808400   1.008000   ; qtot 0.451236
 5271         c3    177    ccc     C2   5271 -0.15486000  12.010000   ; qtot 0.296376
 5272         hc    177    ccc     H3   5272 0.10266400   1.008000   ; qtot 0.399040
 5273         hc    177    ccc     H4   5273 0.10266400   1.008000   ; qtot 0.501704
 5274         c3    177    ccc     C3   5274 -0.15693500  12.010000   ; qtot 0.344769
 5275         h1    177    ccc     H5   5275 0.08499200   1.008000   ; qtot 0.429761
 5276         h1    177    ccc     H6   5276 0.08499200   1.008000   ; qtot 0.514753
 5277         n3    177    ccc     N1   5277 -0.29948700  14.010000   ; qtot 0.215266
 5278         c3    177    ccc     C4   5278 -0.01321200  12.010000   ; qtot 0.202054
 5279         h1    177    ccc     H7   5279 0.08172200   1.008000   ; qtot 0.283776
 5280         h1    177    ccc     H8   5280 0.08172200   1.008000   ; qtot 0.365498
 5281         c3    177    ccc     C5   5281 -0.22180000  12.010000   ; qtot 0.143698
 5282         hc    177    ccc     H9   5282 0.09671800   1.008000   ; qtot 0.240416
 5283         hc    177    ccc    H10   5283 0.09671800   1.008000   ; qtot 0.337134
 5284          c    177    ccc     C6   5284 0.526324  12.010000   ; qtot 1.333661
 5285          o    177    ccc     O1   5285 -0.39142825  16.000000   ; qtot 0.637155
 5286         oh    177    ccc     O2   5286 -0.56822625  16.000000   ; qtot -0.203656
 5287         ho    177    ccc    H11   5287 0.4186155   1.008000   ; qtot 0.322419
 5288         c3    177    ccc     C7   5288 -0.01321200  12.010000   ; qtot 0.309207
 5289         h1    177    ccc    H12   5289 0.08172200   1.008000   ; qtot 0.390929
 5290         h1    177    ccc    H13   5290 0.08172200   1.008000   ; qtot 0.472651
 5291         c3    177    ccc     C8   5291 -0.22180000  12.010000   ; qtot 0.250851
 5292         hc    177    ccc    H14   5292 0.09671800   1.008000   ; qtot 0.347569
 5293         hc    177    ccc    H15   5293 0.09671800   1.008000   ; qtot 0.444287
 5294          c    177    ccc     C9   5294 0.526324  12.010000   ; qtot 1.440814
 5295          o    177    ccc     O3   5295 -0.39142825  16.000000   ; qtot 0.744308
 5296         oh    177    ccc     O4   5296 -0.56822625  16.000000   ; qtot -0.096503
 5297         ho    177    ccc    H16   5297 0.4186155   1.008000   ; qtot 0.429572
 5298         os    177    ccc     O5   5298 -0.42966500  16.000000   ; qtot -0.000093
; residue  178 ccc rtp ccc q 0.0
 5299         c3    178    ccc     C1   5299 0.50749700  12.010000   ; qtot 0.507404
 5300         h1    178    ccc     H1   5300 -0.02808400   1.008000   ; qtot 0.479320
 5301         h1    178    ccc     H2   5301 -0.02808400   1.008000   ; qtot 0.451236
 5302         c3    178    ccc     C2   5302 -0.15486000  12.010000   ; qtot 0.296376
 5303         hc    178    ccc     H3   5303 0.10266400   1.008000   ; qtot 0.399040
 5304         hc    178    ccc     H4   5304 0.10266400   1.008000   ; qtot 0.501704
 5305         c3    178    ccc     C3   5305 -0.15693500  12.010000   ; qtot 0.344769
 5306         h1    178    ccc     H5   5306 0.08499200   1.008000   ; qtot 0.429761
 5307         h1    178    ccc     H6   5307 0.08499200   1.008000   ; qtot 0.514753
 5308         n3    178    ccc     N1   5308 -0.29948700  14.010000   ; qtot 0.215266
 5309         c3    178    ccc     C4   5309 -0.01321200  12.010000   ; qtot 0.202054
 5310         h1    178    ccc     H7   5310 0.08172200   1.008000   ; qtot 0.283776
 5311         h1    178    ccc     H8   5311 0.08172200   1.008000   ; qtot 0.365498
 5312         c3    178    ccc     C5   5312 -0.22180000  12.010000   ; qtot 0.143698
 5313         hc    178    ccc     H9   5313 0.09671800   1.008000   ; qtot 0.240416
 5314         hc    178    ccc    H10   5314 0.09671800   1.008000   ; qtot 0.337134
 5315          c    178    ccc     C6   5315 0.526324  12.010000   ; qtot 1.333661
 5316          o    178    ccc     O1   5316 -0.39142825  16.000000   ; qtot 0.637155
 5317         oh    178    ccc     O2   5317 -0.56822625  16.000000   ; qtot -0.203656
 5318         ho    178    ccc    H11   5318 0.4186155   1.008000   ; qtot 0.322419
 5319         c3    178    ccc     C7   5319 -0.01321200  12.010000   ; qtot 0.309207
 5320         h1    178    ccc    H12   5320 0.08172200   1.008000   ; qtot 0.390929
 5321         h1    178    ccc    H13   5321 0.08172200   1.008000   ; qtot 0.472651
 5322         c3    178    ccc     C8   5322 -0.22180000  12.010000   ; qtot 0.250851
 5323         hc    178    ccc    H14   5323 0.09671800   1.008000   ; qtot 0.347569
 5324         hc    178    ccc    H15   5324 0.09671800   1.008000   ; qtot 0.444287
 5325          c    178    ccc     C9   5325 0.526324  12.010000   ; qtot 1.440814
 5326          o    178    ccc     O3   5326 -0.39142825  16.000000   ; qtot 0.744308
 5327         oh    178    ccc     O4   5327 -0.56822625  16.000000   ; qtot -0.096503
 5328         ho    178    ccc    H16   5328 0.4186155   1.008000   ; qtot 0.429572
 5329         os    178    ccc     O5   5329 -0.42966500  16.000000   ; qtot -0.000093
; residue  179 ccc rtp ccc q 0.0
 5330         c3    179    ccc     C1   5330 0.50749700  12.010000   ; qtot 0.507404
 5331         h1    179    ccc     H1   5331 -0.02808400   1.008000   ; qtot 0.479320
 5332         h1    179    ccc     H2   5332 -0.02808400   1.008000   ; qtot 0.451236
 5333         c3    179    ccc     C2   5333 -0.15486000  12.010000   ; qtot 0.296376
 5334         hc    179    ccc     H3   5334 0.10266400   1.008000   ; qtot 0.399040
 5335         hc    179    ccc     H4   5335 0.10266400   1.008000   ; qtot 0.501704
 5336         c3    179    ccc     C3   5336 -0.15693500  12.010000   ; qtot 0.344769
 5337         h1    179    ccc     H5   5337 0.08499200   1.008000   ; qtot 0.429761
 5338         h1    179    ccc     H6   5338 0.08499200   1.008000   ; qtot 0.514753
 5339         n3    179    ccc     N1   5339 -0.29948700  14.010000   ; qtot 0.215266
 5340         c3    179    ccc     C4   5340 -0.01321200  12.010000   ; qtot 0.202054
 5341         h1    179    ccc     H7   5341 0.08172200   1.008000   ; qtot 0.283776
 5342         h1    179    ccc     H8   5342 0.08172200   1.008000   ; qtot 0.365498
 5343         c3    179    ccc     C5   5343 -0.22180000  12.010000   ; qtot 0.143698
 5344         hc    179    ccc     H9   5344 0.09671800   1.008000   ; qtot 0.240416
 5345         hc    179    ccc    H10   5345 0.09671800   1.008000   ; qtot 0.337134
 5346          c    179    ccc     C6   5346 0.526324  12.010000   ; qtot 1.333661
 5347          o    179    ccc     O1   5347 -0.39142825  16.000000   ; qtot 0.637155
 5348         oh    179    ccc     O2   5348 -0.56822625  16.000000   ; qtot -0.203656
 5349         ho    179    ccc    H11   5349 0.4186155   1.008000   ; qtot 0.322419
 5350         c3    179    ccc     C7   5350 -0.01321200  12.010000   ; qtot 0.309207
 5351         h1    179    ccc    H12   5351 0.08172200   1.008000   ; qtot 0.390929
 5352         h1    179    ccc    H13   5352 0.08172200   1.008000   ; qtot 0.472651
 5353         c3    179    ccc     C8   5353 -0.22180000  12.010000   ; qtot 0.250851
 5354         hc    179    ccc    H14   5354 0.09671800   1.008000   ; qtot 0.347569
 5355         hc    179    ccc    H15   5355 0.09671800   1.008000   ; qtot 0.444287
 5356          c    179    ccc     C9   5356 0.526324  12.010000   ; qtot 1.440814
 5357          o    179    ccc     O3   5357 -0.39142825  16.000000   ; qtot 0.744308
 5358         oh    179    ccc     O4   5358 -0.56822625  16.000000   ; qtot -0.096503
 5359         ho    179    ccc    H16   5359 0.4186155   1.008000   ; qtot 0.429572
 5360         os    179    ccc     O5   5360 -0.42966500  16.000000   ; qtot -0.000093
; residue  180 ccc rtp ccc q 0.0
 5361         c3    180    ccc     C1   5361 0.50749700  12.010000   ; qtot 0.507404
 5362         h1    180    ccc     H1   5362 -0.02808400   1.008000   ; qtot 0.479320
 5363         h1    180    ccc     H2   5363 -0.02808400   1.008000   ; qtot 0.451236
 5364         c3    180    ccc     C2   5364 -0.15486000  12.010000   ; qtot 0.296376
 5365         hc    180    ccc     H3   5365 0.10266400   1.008000   ; qtot 0.399040
 5366         hc    180    ccc     H4   5366 0.10266400   1.008000   ; qtot 0.501704
 5367         c3    180    ccc     C3   5367 -0.15693500  12.010000   ; qtot 0.344769
 5368         h1    180    ccc     H5   5368 0.08499200   1.008000   ; qtot 0.429761
 5369         h1    180    ccc     H6   5369 0.08499200   1.008000   ; qtot 0.514753
 5370         n3    180    ccc     N1   5370 -0.29948700  14.010000   ; qtot 0.215266
 5371         c3    180    ccc     C4   5371 -0.01321200  12.010000   ; qtot 0.202054
 5372         h1    180    ccc     H7   5372 0.08172200   1.008000   ; qtot 0.283776
 5373         h1    180    ccc     H8   5373 0.08172200   1.008000   ; qtot 0.365498
 5374         c3    180    ccc     C5   5374 -0.22180000  12.010000   ; qtot 0.143698
 5375         hc    180    ccc     H9   5375 0.09671800   1.008000   ; qtot 0.240416
 5376         hc    180    ccc    H10   5376 0.09671800   1.008000   ; qtot 0.337134
 5377          c    180    ccc     C6   5377 0.526324  12.010000   ; qtot 1.333661
 5378          o    180    ccc     O1   5378 -0.39142825  16.000000   ; qtot 0.637155
 5379         oh    180    ccc     O2   5379 -0.56822625  16.000000   ; qtot -0.203656
 5380         ho    180    ccc    H11   5380 0.4186155   1.008000   ; qtot 0.322419
 5381         c3    180    ccc     C7   5381 -0.01321200  12.010000   ; qtot 0.309207
 5382         h1    180    ccc    H12   5382 0.08172200   1.008000   ; qtot 0.390929
 5383         h1    180    ccc    H13   5383 0.08172200   1.008000   ; qtot 0.472651
 5384         c3    180    ccc     C8   5384 -0.22180000  12.010000   ; qtot 0.250851
 5385         hc    180    ccc    H14   5385 0.09671800   1.008000   ; qtot 0.347569
 5386         hc    180    ccc    H15   5386 0.09671800   1.008000   ; qtot 0.444287
 5387          c    180    ccc     C9   5387 0.526324  12.010000   ; qtot 1.440814
 5388          o    180    ccc     O3   5388 -0.39142825  16.000000   ; qtot 0.744308
 5389         oh    180    ccc     O4   5389 -0.56822625  16.000000   ; qtot -0.096503
 5390         ho    180    ccc    H16   5390 0.4186155   1.008000   ; qtot 0.429572
 5391         os    180    ccc     O5   5391 -0.42966500  16.000000   ; qtot -0.000093
; residue  181 ccc rtp ccc q 0.0
 5392         c3    181    ccc     C1   5392 0.50749700  12.010000   ; qtot 0.507404
 5393         h1    181    ccc     H1   5393 -0.02808400   1.008000   ; qtot 0.479320
 5394         h1    181    ccc     H2   5394 -0.02808400   1.008000   ; qtot 0.451236
 5395         c3    181    ccc     C2   5395 -0.15486000  12.010000   ; qtot 0.296376
 5396         hc    181    ccc     H3   5396 0.10266400   1.008000   ; qtot 0.399040
 5397         hc    181    ccc     H4   5397 0.10266400   1.008000   ; qtot 0.501704
 5398         c3    181    ccc     C3   5398 -0.15693500  12.010000   ; qtot 0.344769
 5399         h1    181    ccc     H5   5399 0.08499200   1.008000   ; qtot 0.429761
 5400         h1    181    ccc     H6   5400 0.08499200   1.008000   ; qtot 0.514753
 5401         n3    181    ccc     N1   5401 -0.29948700  14.010000   ; qtot 0.215266
 5402         c3    181    ccc     C4   5402 -0.01321200  12.010000   ; qtot 0.202054
 5403         h1    181    ccc     H7   5403 0.08172200   1.008000   ; qtot 0.283776
 5404         h1    181    ccc     H8   5404 0.08172200   1.008000   ; qtot 0.365498
 5405         c3    181    ccc     C5   5405 -0.22180000  12.010000   ; qtot 0.143698
 5406         hc    181    ccc     H9   5406 0.09671800   1.008000   ; qtot 0.240416
 5407         hc    181    ccc    H10   5407 0.09671800   1.008000   ; qtot 0.337134
 5408          c    181    ccc     C6   5408 0.526324  12.010000   ; qtot 1.333661
 5409          o    181    ccc     O1   5409 -0.39142825  16.000000   ; qtot 0.637155
 5410         oh    181    ccc     O2   5410 -0.56822625  16.000000   ; qtot -0.203656
 5411         ho    181    ccc    H11   5411 0.4186155   1.008000   ; qtot 0.322419
 5412         c3    181    ccc     C7   5412 -0.01321200  12.010000   ; qtot 0.309207
 5413         h1    181    ccc    H12   5413 0.08172200   1.008000   ; qtot 0.390929
 5414         h1    181    ccc    H13   5414 0.08172200   1.008000   ; qtot 0.472651
 5415         c3    181    ccc     C8   5415 -0.22180000  12.010000   ; qtot 0.250851
 5416         hc    181    ccc    H14   5416 0.09671800   1.008000   ; qtot 0.347569
 5417         hc    181    ccc    H15   5417 0.09671800   1.008000   ; qtot 0.444287
 5418          c    181    ccc     C9   5418 0.526324  12.010000   ; qtot 1.440814
 5419          o    181    ccc     O3   5419 -0.39142825  16.000000   ; qtot 0.744308
 5420         oh    181    ccc     O4   5420 -0.56822625  16.000000   ; qtot -0.096503
 5421         ho    181    ccc    H16   5421 0.4186155   1.008000   ; qtot 0.429572
 5422         os    181    ccc     O5   5422 -0.42966500  16.000000   ; qtot -0.000093
; residue  182 ccc rtp ccc q 0.0
 5423         c3    182    ccc     C1   5423 0.50749700  12.010000   ; qtot 0.507404
 5424         h1    182    ccc     H1   5424 -0.02808400   1.008000   ; qtot 0.479320
 5425         h1    182    ccc     H2   5425 -0.02808400   1.008000   ; qtot 0.451236
 5426         c3    182    ccc     C2   5426 -0.15486000  12.010000   ; qtot 0.296376
 5427         hc    182    ccc     H3   5427 0.10266400   1.008000   ; qtot 0.399040
 5428         hc    182    ccc     H4   5428 0.10266400   1.008000   ; qtot 0.501704
 5429         c3    182    ccc     C3   5429 -0.15693500  12.010000   ; qtot 0.344769
 5430         h1    182    ccc     H5   5430 0.08499200   1.008000   ; qtot 0.429761
 5431         h1    182    ccc     H6   5431 0.08499200   1.008000   ; qtot 0.514753
 5432         n3    182    ccc     N1   5432 -0.29948700  14.010000   ; qtot 0.215266
 5433         c3    182    ccc     C4   5433 -0.01321200  12.010000   ; qtot 0.202054
 5434         h1    182    ccc     H7   5434 0.08172200   1.008000   ; qtot 0.283776
 5435         h1    182    ccc     H8   5435 0.08172200   1.008000   ; qtot 0.365498
 5436         c3    182    ccc     C5   5436 -0.22180000  12.010000   ; qtot 0.143698
 5437         hc    182    ccc     H9   5437 0.09671800   1.008000   ; qtot 0.240416
 5438         hc    182    ccc    H10   5438 0.09671800   1.008000   ; qtot 0.337134
 5439          c    182    ccc     C6   5439 0.526324  12.010000   ; qtot 1.333661
 5440          o    182    ccc     O1   5440 -0.39142825  16.000000   ; qtot 0.637155
 5441         oh    182    ccc     O2   5441 -0.56822625  16.000000   ; qtot -0.203656
 5442         ho    182    ccc    H11   5442 0.4186155   1.008000   ; qtot 0.322419
 5443         c3    182    ccc     C7   5443 -0.01321200  12.010000   ; qtot 0.309207
 5444         h1    182    ccc    H12   5444 0.08172200   1.008000   ; qtot 0.390929
 5445         h1    182    ccc    H13   5445 0.08172200   1.008000   ; qtot 0.472651
 5446         c3    182    ccc     C8   5446 -0.22180000  12.010000   ; qtot 0.250851
 5447         hc    182    ccc    H14   5447 0.09671800   1.008000   ; qtot 0.347569
 5448         hc    182    ccc    H15   5448 0.09671800   1.008000   ; qtot 0.444287
 5449          c    182    ccc     C9   5449 0.526324  12.010000   ; qtot 1.440814
 5450          o    182    ccc     O3   5450 -0.39142825  16.000000   ; qtot 0.744308
 5451         oh    182    ccc     O4   5451 -0.56822625  16.000000   ; qtot -0.096503
 5452         ho    182    ccc    H16   5452 0.4186155   1.008000   ; qtot 0.429572
 5453         os    182    ccc     O5   5453 -0.42966500  16.000000   ; qtot -0.000093
; residue  183 ccc rtp ccc q 0.0
 5454         c3    183    ccc     C1   5454 0.50749700  12.010000   ; qtot 0.507404
 5455         h1    183    ccc     H1   5455 -0.02808400   1.008000   ; qtot 0.479320
 5456         h1    183    ccc     H2   5456 -0.02808400   1.008000   ; qtot 0.451236
 5457         c3    183    ccc     C2   5457 -0.15486000  12.010000   ; qtot 0.296376
 5458         hc    183    ccc     H3   5458 0.10266400   1.008000   ; qtot 0.399040
 5459         hc    183    ccc     H4   5459 0.10266400   1.008000   ; qtot 0.501704
 5460         c3    183    ccc     C3   5460 -0.15693500  12.010000   ; qtot 0.344769
 5461         h1    183    ccc     H5   5461 0.08499200   1.008000   ; qtot 0.429761
 5462         h1    183    ccc     H6   5462 0.08499200   1.008000   ; qtot 0.514753
 5463         n3    183    ccc     N1   5463 -0.29948700  14.010000   ; qtot 0.215266
 5464         c3    183    ccc     C4   5464 -0.01321200  12.010000   ; qtot 0.202054
 5465         h1    183    ccc     H7   5465 0.08172200   1.008000   ; qtot 0.283776
 5466         h1    183    ccc     H8   5466 0.08172200   1.008000   ; qtot 0.365498
 5467         c3    183    ccc     C5   5467 -0.22180000  12.010000   ; qtot 0.143698
 5468         hc    183    ccc     H9   5468 0.09671800   1.008000   ; qtot 0.240416
 5469         hc    183    ccc    H10   5469 0.09671800   1.008000   ; qtot 0.337134
 5470          c    183    ccc     C6   5470 0.526324  12.010000   ; qtot 1.333661
 5471          o    183    ccc     O1   5471 -0.39142825  16.000000   ; qtot 0.637155
 5472         oh    183    ccc     O2   5472 -0.56822625  16.000000   ; qtot -0.203656
 5473         ho    183    ccc    H11   5473 0.4186155   1.008000   ; qtot 0.322419
 5474         c3    183    ccc     C7   5474 -0.01321200  12.010000   ; qtot 0.309207
 5475         h1    183    ccc    H12   5475 0.08172200   1.008000   ; qtot 0.390929
 5476         h1    183    ccc    H13   5476 0.08172200   1.008000   ; qtot 0.472651
 5477         c3    183    ccc     C8   5477 -0.22180000  12.010000   ; qtot 0.250851
 5478         hc    183    ccc    H14   5478 0.09671800   1.008000   ; qtot 0.347569
 5479         hc    183    ccc    H15   5479 0.09671800   1.008000   ; qtot 0.444287
 5480          c    183    ccc     C9   5480 0.526324  12.010000   ; qtot 1.440814
 5481          o    183    ccc     O3   5481 -0.39142825  16.000000   ; qtot 0.744308
 5482         oh    183    ccc     O4   5482 -0.56822625  16.000000   ; qtot -0.096503
 5483         ho    183    ccc    H16   5483 0.4186155   1.008000   ; qtot 0.429572
 5484         os    183    ccc     O5   5484 -0.42966500  16.000000   ; qtot -0.000093
; residue  184 ccc rtp ccc q 0.0
 5485         c3    184    ccc     C1   5485 0.50749700  12.010000   ; qtot 0.507404
 5486         h1    184    ccc     H1   5486 -0.02808400   1.008000   ; qtot 0.479320
 5487         h1    184    ccc     H2   5487 -0.02808400   1.008000   ; qtot 0.451236
 5488         c3    184    ccc     C2   5488 -0.15486000  12.010000   ; qtot 0.296376
 5489         hc    184    ccc     H3   5489 0.10266400   1.008000   ; qtot 0.399040
 5490         hc    184    ccc     H4   5490 0.10266400   1.008000   ; qtot 0.501704
 5491         c3    184    ccc     C3   5491 -0.15693500  12.010000   ; qtot 0.344769
 5492         h1    184    ccc     H5   5492 0.08499200   1.008000   ; qtot 0.429761
 5493         h1    184    ccc     H6   5493 0.08499200   1.008000   ; qtot 0.514753
 5494         n3    184    ccc     N1   5494 -0.29948700  14.010000   ; qtot 0.215266
 5495         c3    184    ccc     C4   5495 -0.01321200  12.010000   ; qtot 0.202054
 5496         h1    184    ccc     H7   5496 0.08172200   1.008000   ; qtot 0.283776
 5497         h1    184    ccc     H8   5497 0.08172200   1.008000   ; qtot 0.365498
 5498         c3    184    ccc     C5   5498 -0.22180000  12.010000   ; qtot 0.143698
 5499         hc    184    ccc     H9   5499 0.09671800   1.008000   ; qtot 0.240416
 5500         hc    184    ccc    H10   5500 0.09671800   1.008000   ; qtot 0.337134
 5501          c    184    ccc     C6   5501 0.526324  12.010000   ; qtot 1.333661
 5502          o    184    ccc     O1   5502 -0.39142825  16.000000   ; qtot 0.637155
 5503         oh    184    ccc     O2   5503 -0.56822625  16.000000   ; qtot -0.203656
 5504         ho    184    ccc    H11   5504 0.4186155   1.008000   ; qtot 0.322419
 5505         c3    184    ccc     C7   5505 -0.01321200  12.010000   ; qtot 0.309207
 5506         h1    184    ccc    H12   5506 0.08172200   1.008000   ; qtot 0.390929
 5507         h1    184    ccc    H13   5507 0.08172200   1.008000   ; qtot 0.472651
 5508         c3    184    ccc     C8   5508 -0.22180000  12.010000   ; qtot 0.250851
 5509         hc    184    ccc    H14   5509 0.09671800   1.008000   ; qtot 0.347569
 5510         hc    184    ccc    H15   5510 0.09671800   1.008000   ; qtot 0.444287
 5511          c    184    ccc     C9   5511 0.526324  12.010000   ; qtot 1.440814
 5512          o    184    ccc     O3   5512 -0.39142825  16.000000   ; qtot 0.744308
 5513         oh    184    ccc     O4   5513 -0.56822625  16.000000   ; qtot -0.096503
 5514         ho    184    ccc    H16   5514 0.4186155   1.008000   ; qtot 0.429572
 5515         os    184    ccc     O5   5515 -0.42966500  16.000000   ; qtot -0.000093
; residue  185 ccc rtp ccc q 0.0
 5516         c3    185    ccc     C1   5516 0.50749700  12.010000   ; qtot 0.507404
 5517         h1    185    ccc     H1   5517 -0.02808400   1.008000   ; qtot 0.479320
 5518         h1    185    ccc     H2   5518 -0.02808400   1.008000   ; qtot 0.451236
 5519         c3    185    ccc     C2   5519 -0.15486000  12.010000   ; qtot 0.296376
 5520         hc    185    ccc     H3   5520 0.10266400   1.008000   ; qtot 0.399040
 5521         hc    185    ccc     H4   5521 0.10266400   1.008000   ; qtot 0.501704
 5522         c3    185    ccc     C3   5522 -0.15693500  12.010000   ; qtot 0.344769
 5523         h1    185    ccc     H5   5523 0.08499200   1.008000   ; qtot 0.429761
 5524         h1    185    ccc     H6   5524 0.08499200   1.008000   ; qtot 0.514753
 5525         n3    185    ccc     N1   5525 -0.29948700  14.010000   ; qtot 0.215266
 5526         c3    185    ccc     C4   5526 -0.01321200  12.010000   ; qtot 0.202054
 5527         h1    185    ccc     H7   5527 0.08172200   1.008000   ; qtot 0.283776
 5528         h1    185    ccc     H8   5528 0.08172200   1.008000   ; qtot 0.365498
 5529         c3    185    ccc     C5   5529 -0.22180000  12.010000   ; qtot 0.143698
 5530         hc    185    ccc     H9   5530 0.09671800   1.008000   ; qtot 0.240416
 5531         hc    185    ccc    H10   5531 0.09671800   1.008000   ; qtot 0.337134
 5532          c    185    ccc     C6   5532 0.526324  12.010000   ; qtot 1.333661
 5533          o    185    ccc     O1   5533 -0.39142825  16.000000   ; qtot 0.637155
 5534         oh    185    ccc     O2   5534 -0.56822625  16.000000   ; qtot -0.203656
 5535         ho    185    ccc    H11   5535 0.4186155   1.008000   ; qtot 0.322419
 5536         c3    185    ccc     C7   5536 -0.01321200  12.010000   ; qtot 0.309207
 5537         h1    185    ccc    H12   5537 0.08172200   1.008000   ; qtot 0.390929
 5538         h1    185    ccc    H13   5538 0.08172200   1.008000   ; qtot 0.472651
 5539         c3    185    ccc     C8   5539 -0.22180000  12.010000   ; qtot 0.250851
 5540         hc    185    ccc    H14   5540 0.09671800   1.008000   ; qtot 0.347569
 5541         hc    185    ccc    H15   5541 0.09671800   1.008000   ; qtot 0.444287
 5542          c    185    ccc     C9   5542 0.526324  12.010000   ; qtot 1.440814
 5543          o    185    ccc     O3   5543 -0.39142825  16.000000   ; qtot 0.744308
 5544         oh    185    ccc     O4   5544 -0.56822625  16.000000   ; qtot -0.096503
 5545         ho    185    ccc    H16   5545 0.4186155   1.008000   ; qtot 0.429572
 5546         os    185    ccc     O5   5546 -0.42966500  16.000000   ; qtot -0.000093
; residue  186 ccc rtp ccc q 0.0
 5547         c3    186    ccc     C1   5547 0.50749700  12.010000   ; qtot 0.507404
 5548         h1    186    ccc     H1   5548 -0.02808400   1.008000   ; qtot 0.479320
 5549         h1    186    ccc     H2   5549 -0.02808400   1.008000   ; qtot 0.451236
 5550         c3    186    ccc     C2   5550 -0.15486000  12.010000   ; qtot 0.296376
 5551         hc    186    ccc     H3   5551 0.10266400   1.008000   ; qtot 0.399040
 5552         hc    186    ccc     H4   5552 0.10266400   1.008000   ; qtot 0.501704
 5553         c3    186    ccc     C3   5553 -0.15693500  12.010000   ; qtot 0.344769
 5554         h1    186    ccc     H5   5554 0.08499200   1.008000   ; qtot 0.429761
 5555         h1    186    ccc     H6   5555 0.08499200   1.008000   ; qtot 0.514753
 5556         n3    186    ccc     N1   5556 -0.29948700  14.010000   ; qtot 0.215266
 5557         c3    186    ccc     C4   5557 -0.01321200  12.010000   ; qtot 0.202054
 5558         h1    186    ccc     H7   5558 0.08172200   1.008000   ; qtot 0.283776
 5559         h1    186    ccc     H8   5559 0.08172200   1.008000   ; qtot 0.365498
 5560         c3    186    ccc     C5   5560 -0.22180000  12.010000   ; qtot 0.143698
 5561         hc    186    ccc     H9   5561 0.09671800   1.008000   ; qtot 0.240416
 5562         hc    186    ccc    H10   5562 0.09671800   1.008000   ; qtot 0.337134
 5563          c    186    ccc     C6   5563 0.526324  12.010000   ; qtot 1.333661
 5564          o    186    ccc     O1   5564 -0.39142825  16.000000   ; qtot 0.637155
 5565         oh    186    ccc     O2   5565 -0.56822625  16.000000   ; qtot -0.203656
 5566         ho    186    ccc    H11   5566 0.4186155   1.008000   ; qtot 0.322419
 5567         c3    186    ccc     C7   5567 -0.01321200  12.010000   ; qtot 0.309207
 5568         h1    186    ccc    H12   5568 0.08172200   1.008000   ; qtot 0.390929
 5569         h1    186    ccc    H13   5569 0.08172200   1.008000   ; qtot 0.472651
 5570         c3    186    ccc     C8   5570 -0.22180000  12.010000   ; qtot 0.250851
 5571         hc    186    ccc    H14   5571 0.09671800   1.008000   ; qtot 0.347569
 5572         hc    186    ccc    H15   5572 0.09671800   1.008000   ; qtot 0.444287
 5573          c    186    ccc     C9   5573 0.526324  12.010000   ; qtot 1.440814
 5574          o    186    ccc     O3   5574 -0.39142825  16.000000   ; qtot 0.744308
 5575         oh    186    ccc     O4   5575 -0.56822625  16.000000   ; qtot -0.096503
 5576         ho    186    ccc    H16   5576 0.4186155   1.008000   ; qtot 0.429572
 5577         os    186    ccc     O5   5577 -0.42966500  16.000000   ; qtot -0.000093
; residue  187 ccc rtp ccc q 0.0
 5578         c3    187    ccc     C1   5578 0.50749700  12.010000   ; qtot 0.507404
 5579         h1    187    ccc     H1   5579 -0.02808400   1.008000   ; qtot 0.479320
 5580         h1    187    ccc     H2   5580 -0.02808400   1.008000   ; qtot 0.451236
 5581         c3    187    ccc     C2   5581 -0.15486000  12.010000   ; qtot 0.296376
 5582         hc    187    ccc     H3   5582 0.10266400   1.008000   ; qtot 0.399040
 5583         hc    187    ccc     H4   5583 0.10266400   1.008000   ; qtot 0.501704
 5584         c3    187    ccc     C3   5584 -0.15693500  12.010000   ; qtot 0.344769
 5585         h1    187    ccc     H5   5585 0.08499200   1.008000   ; qtot 0.429761
 5586         h1    187    ccc     H6   5586 0.08499200   1.008000   ; qtot 0.514753
 5587         n3    187    ccc     N1   5587 -0.29948700  14.010000   ; qtot 0.215266
 5588         c3    187    ccc     C4   5588 -0.01321200  12.010000   ; qtot 0.202054
 5589         h1    187    ccc     H7   5589 0.08172200   1.008000   ; qtot 0.283776
 5590         h1    187    ccc     H8   5590 0.08172200   1.008000   ; qtot 0.365498
 5591         c3    187    ccc     C5   5591 -0.22180000  12.010000   ; qtot 0.143698
 5592         hc    187    ccc     H9   5592 0.09671800   1.008000   ; qtot 0.240416
 5593         hc    187    ccc    H10   5593 0.09671800   1.008000   ; qtot 0.337134
 5594          c    187    ccc     C6   5594 0.526324  12.010000   ; qtot 1.333661
 5595          o    187    ccc     O1   5595 -0.39142825  16.000000   ; qtot 0.637155
 5596         oh    187    ccc     O2   5596 -0.56822625  16.000000   ; qtot -0.203656
 5597         ho    187    ccc    H11   5597 0.4186155   1.008000   ; qtot 0.322419
 5598         c3    187    ccc     C7   5598 -0.01321200  12.010000   ; qtot 0.309207
 5599         h1    187    ccc    H12   5599 0.08172200   1.008000   ; qtot 0.390929
 5600         h1    187    ccc    H13   5600 0.08172200   1.008000   ; qtot 0.472651
 5601         c3    187    ccc     C8   5601 -0.22180000  12.010000   ; qtot 0.250851
 5602         hc    187    ccc    H14   5602 0.09671800   1.008000   ; qtot 0.347569
 5603         hc    187    ccc    H15   5603 0.09671800   1.008000   ; qtot 0.444287
 5604          c    187    ccc     C9   5604 0.526324  12.010000   ; qtot 1.440814
 5605          o    187    ccc     O3   5605 -0.39142825  16.000000   ; qtot 0.744308
 5606         oh    187    ccc     O4   5606 -0.56822625  16.000000   ; qtot -0.096503
 5607         ho    187    ccc    H16   5607 0.4186155   1.008000   ; qtot 0.429572
 5608         os    187    ccc     O5   5608 -0.42966500  16.000000   ; qtot -0.000093
; residue  188 ccc rtp ccc q 0.0
 5609         c3    188    ccc     C1   5609 0.50749700  12.010000   ; qtot 0.507404
 5610         h1    188    ccc     H1   5610 -0.02808400   1.008000   ; qtot 0.479320
 5611         h1    188    ccc     H2   5611 -0.02808400   1.008000   ; qtot 0.451236
 5612         c3    188    ccc     C2   5612 -0.15486000  12.010000   ; qtot 0.296376
 5613         hc    188    ccc     H3   5613 0.10266400   1.008000   ; qtot 0.399040
 5614         hc    188    ccc     H4   5614 0.10266400   1.008000   ; qtot 0.501704
 5615         c3    188    ccc     C3   5615 -0.15693500  12.010000   ; qtot 0.344769
 5616         h1    188    ccc     H5   5616 0.08499200   1.008000   ; qtot 0.429761
 5617         h1    188    ccc     H6   5617 0.08499200   1.008000   ; qtot 0.514753
 5618         n3    188    ccc     N1   5618 -0.29948700  14.010000   ; qtot 0.215266
 5619         c3    188    ccc     C4   5619 -0.01321200  12.010000   ; qtot 0.202054
 5620         h1    188    ccc     H7   5620 0.08172200   1.008000   ; qtot 0.283776
 5621         h1    188    ccc     H8   5621 0.08172200   1.008000   ; qtot 0.365498
 5622         c3    188    ccc     C5   5622 -0.22180000  12.010000   ; qtot 0.143698
 5623         hc    188    ccc     H9   5623 0.09671800   1.008000   ; qtot 0.240416
 5624         hc    188    ccc    H10   5624 0.09671800   1.008000   ; qtot 0.337134
 5625          c    188    ccc     C6   5625 0.526324  12.010000   ; qtot 1.333661
 5626          o    188    ccc     O1   5626 -0.39142825  16.000000   ; qtot 0.637155
 5627         oh    188    ccc     O2   5627 -0.56822625  16.000000   ; qtot -0.203656
 5628         ho    188    ccc    H11   5628 0.4186155   1.008000   ; qtot 0.322419
 5629         c3    188    ccc     C7   5629 -0.01321200  12.010000   ; qtot 0.309207
 5630         h1    188    ccc    H12   5630 0.08172200   1.008000   ; qtot 0.390929
 5631         h1    188    ccc    H13   5631 0.08172200   1.008000   ; qtot 0.472651
 5632         c3    188    ccc     C8   5632 -0.22180000  12.010000   ; qtot 0.250851
 5633         hc    188    ccc    H14   5633 0.09671800   1.008000   ; qtot 0.347569
 5634         hc    188    ccc    H15   5634 0.09671800   1.008000   ; qtot 0.444287
 5635          c    188    ccc     C9   5635 0.526324  12.010000   ; qtot 1.440814
 5636          o    188    ccc     O3   5636 -0.39142825  16.000000   ; qtot 0.744308
 5637         oh    188    ccc     O4   5637 -0.56822625  16.000000   ; qtot -0.096503
 5638         ho    188    ccc    H16   5638 0.4186155   1.008000   ; qtot 0.429572
 5639         os    188    ccc     O5   5639 -0.42966500  16.000000   ; qtot -0.000093
; residue  189 ccc rtp ccc q 0.0
 5640         c3    189    ccc     C1   5640 0.50749700  12.010000   ; qtot 0.507404
 5641         h1    189    ccc     H1   5641 -0.02808400   1.008000   ; qtot 0.479320
 5642         h1    189    ccc     H2   5642 -0.02808400   1.008000   ; qtot 0.451236
 5643         c3    189    ccc     C2   5643 -0.15486000  12.010000   ; qtot 0.296376
 5644         hc    189    ccc     H3   5644 0.10266400   1.008000   ; qtot 0.399040
 5645         hc    189    ccc     H4   5645 0.10266400   1.008000   ; qtot 0.501704
 5646         c3    189    ccc     C3   5646 -0.15693500  12.010000   ; qtot 0.344769
 5647         h1    189    ccc     H5   5647 0.08499200   1.008000   ; qtot 0.429761
 5648         h1    189    ccc     H6   5648 0.08499200   1.008000   ; qtot 0.514753
 5649         n3    189    ccc     N1   5649 -0.29948700  14.010000   ; qtot 0.215266
 5650         c3    189    ccc     C4   5650 -0.01321200  12.010000   ; qtot 0.202054
 5651         h1    189    ccc     H7   5651 0.08172200   1.008000   ; qtot 0.283776
 5652         h1    189    ccc     H8   5652 0.08172200   1.008000   ; qtot 0.365498
 5653         c3    189    ccc     C5   5653 -0.22180000  12.010000   ; qtot 0.143698
 5654         hc    189    ccc     H9   5654 0.09671800   1.008000   ; qtot 0.240416
 5655         hc    189    ccc    H10   5655 0.09671800   1.008000   ; qtot 0.337134
 5656          c    189    ccc     C6   5656 0.526324  12.010000   ; qtot 1.333661
 5657          o    189    ccc     O1   5657 -0.39142825  16.000000   ; qtot 0.637155
 5658         oh    189    ccc     O2   5658 -0.56822625  16.000000   ; qtot -0.203656
 5659         ho    189    ccc    H11   5659 0.4186155   1.008000   ; qtot 0.322419
 5660         c3    189    ccc     C7   5660 -0.01321200  12.010000   ; qtot 0.309207
 5661         h1    189    ccc    H12   5661 0.08172200   1.008000   ; qtot 0.390929
 5662         h1    189    ccc    H13   5662 0.08172200   1.008000   ; qtot 0.472651
 5663         c3    189    ccc     C8   5663 -0.22180000  12.010000   ; qtot 0.250851
 5664         hc    189    ccc    H14   5664 0.09671800   1.008000   ; qtot 0.347569
 5665         hc    189    ccc    H15   5665 0.09671800   1.008000   ; qtot 0.444287
 5666          c    189    ccc     C9   5666 0.526324  12.010000   ; qtot 1.440814
 5667          o    189    ccc     O3   5667 -0.39142825  16.000000   ; qtot 0.744308
 5668         oh    189    ccc     O4   5668 -0.56822625  16.000000   ; qtot -0.096503
 5669         ho    189    ccc    H16   5669 0.4186155   1.008000   ; qtot 0.429572
 5670         os    189    ccc     O5   5670 -0.42966500  16.000000   ; qtot -0.000093
; residue  190 ccc rtp ccc q 0.0
 5671         c3    190    ccc     C1   5671 0.50749700  12.010000   ; qtot 0.507404
 5672         h1    190    ccc     H1   5672 -0.02808400   1.008000   ; qtot 0.479320
 5673         h1    190    ccc     H2   5673 -0.02808400   1.008000   ; qtot 0.451236
 5674         c3    190    ccc     C2   5674 -0.15486000  12.010000   ; qtot 0.296376
 5675         hc    190    ccc     H3   5675 0.10266400   1.008000   ; qtot 0.399040
 5676         hc    190    ccc     H4   5676 0.10266400   1.008000   ; qtot 0.501704
 5677         c3    190    ccc     C3   5677 -0.15693500  12.010000   ; qtot 0.344769
 5678         h1    190    ccc     H5   5678 0.08499200   1.008000   ; qtot 0.429761
 5679         h1    190    ccc     H6   5679 0.08499200   1.008000   ; qtot 0.514753
 5680         n3    190    ccc     N1   5680 -0.29948700  14.010000   ; qtot 0.215266
 5681         c3    190    ccc     C4   5681 -0.01321200  12.010000   ; qtot 0.202054
 5682         h1    190    ccc     H7   5682 0.08172200   1.008000   ; qtot 0.283776
 5683         h1    190    ccc     H8   5683 0.08172200   1.008000   ; qtot 0.365498
 5684         c3    190    ccc     C5   5684 -0.22180000  12.010000   ; qtot 0.143698
 5685         hc    190    ccc     H9   5685 0.09671800   1.008000   ; qtot 0.240416
 5686         hc    190    ccc    H10   5686 0.09671800   1.008000   ; qtot 0.337134
 5687          c    190    ccc     C6   5687 0.526324  12.010000   ; qtot 1.333661
 5688          o    190    ccc     O1   5688 -0.39142825  16.000000   ; qtot 0.637155
 5689         oh    190    ccc     O2   5689 -0.56822625  16.000000   ; qtot -0.203656
 5690         ho    190    ccc    H11   5690 0.4186155   1.008000   ; qtot 0.322419
 5691         c3    190    ccc     C7   5691 -0.01321200  12.010000   ; qtot 0.309207
 5692         h1    190    ccc    H12   5692 0.08172200   1.008000   ; qtot 0.390929
 5693         h1    190    ccc    H13   5693 0.08172200   1.008000   ; qtot 0.472651
 5694         c3    190    ccc     C8   5694 -0.22180000  12.010000   ; qtot 0.250851
 5695         hc    190    ccc    H14   5695 0.09671800   1.008000   ; qtot 0.347569
 5696         hc    190    ccc    H15   5696 0.09671800   1.008000   ; qtot 0.444287
 5697          c    190    ccc     C9   5697 0.526324  12.010000   ; qtot 1.440814
 5698          o    190    ccc     O3   5698 -0.39142825  16.000000   ; qtot 0.744308
 5699         oh    190    ccc     O4   5699 -0.56822625  16.000000   ; qtot -0.096503
 5700         ho    190    ccc    H16   5700 0.4186155   1.008000   ; qtot 0.429572
 5701         os    190    ccc     O5   5701 -0.42966500  16.000000   ; qtot -0.000093

[ bonds ]
;    ai     aj funct         c0         c1         c2         c3
      1      2     1   0.14647 272713.120000
      1      5     1   0.14647 272713.120000
      1      8     1   0.14647 272713.120000
      2     14     1   0.15375 251793.120000
      5     17     1   0.15375 251793.120000
      8     11     1   0.15375 251793.120000
     11     23     1   0.15375 251793.120000
     14     26     1   0.15375 251793.120000
     17     20     1   0.15375 251793.120000
     20     57     1   0.14316 258236.480000
     23     86     1   0.14316 258236.480000
     26    115     1   0.14316 258236.480000
     29     30     1   0.14647 272713.120000
     29     33     1   0.14647 272713.120000
     29     36     1   0.14647 272713.120000
     30     42     1   0.15375 251793.120000
     33     45     1   0.15375 251793.120000
     36     39     1   0.15375 251793.120000
     39     48     1   0.15375 251793.120000
     42     54     1   0.15375 251793.120000
     45     51     1   0.15375 251793.120000
     48     57     1   0.14316 258236.480000
     51    144     1   0.14316 258236.480000
     54    173     1   0.14316 258236.480000
     58     59     1   0.14647 272713.120000
     58     62     1   0.14647 272713.120000
     58     65     1   0.14647 272713.120000
     59     71     1   0.15375 251793.120000
     62     74     1   0.15375 251793.120000
     65     68     1   0.15375 251793.120000
     68     77     1   0.15375 251793.120000
     71     83     1   0.15375 251793.120000
     74     80     1   0.15375 251793.120000
     77     86     1   0.14316 258236.480000
     80    202     1   0.14316 258236.480000
     83    231     1   0.14316 258236.480000
     87     88     1   0.14647 272713.120000
     87     91     1   0.14647 272713.120000
     87     94     1   0.14647 272713.120000
     88    100     1   0.15375 251793.120000
     91    103     1   0.15375 251793.120000
     94     97     1   0.15375 251793.120000
     97    106     1   0.15375 251793.120000
    100    112     1   0.15375 251793.120000
    103    109     1   0.15375 251793.120000
    106    115     1   0.14316 258236.480000
    109    260     1   0.14316 258236.480000
    112    289     1   0.14316 258236.480000
    116    117     1   0.14647 272713.120000
    116    120     1   0.14647 272713.120000
    116    123     1   0.14647 272713.120000
    117    129     1   0.15375 251793.120000
    120    132     1   0.15375 251793.120000
    123    126     1   0.15375 251793.120000
    126    135     1   0.15375 251793.120000
    129    141     1   0.15375 251793.120000
    132    138     1   0.15375 251793.120000
    135    144     1   0.14316 258236.480000
    138    318     1   0.14316 258236.480000
    141    347     1   0.14316 258236.480000
    145    146     1   0.14647 272713.120000
    145    149     1   0.14647 272713.120000
    145    152     1   0.14647 272713.120000
    146    158     1   0.15375 251793.120000
    149    161     1   0.15375 251793.120000
    152    155     1   0.15375 251793.120000
    155    164     1   0.15375 251793.120000
    158    170     1   0.15375 251793.120000
    161    167     1   0.15375 251793.120000
    164    173     1   0.14316 258236.480000
    167    376     1   0.14316 258236.480000
    170    405     1   0.14316 258236.480000
    174    175     1   0.14647 272713.120000
    174    178     1   0.14647 272713.120000
    174    181     1   0.14647 272713.120000
    175    187     1   0.15375 251793.120000
    178    190     1   0.15375 251793.120000
    181    184     1   0.15375 251793.120000
    184    193     1   0.15375 251793.120000
    187    199     1   0.15375 251793.120000
    190    196     1   0.15375 251793.120000
    193    202     1   0.14316 258236.480000
    196    434     1   0.14316 258236.480000
    199    463     1   0.14316 258236.480000
    203    204     1   0.14647 272713.120000
    203    207     1   0.14647 272713.120000
    203    210     1   0.14647 272713.120000
    204    216     1   0.15375 251793.120000
    207    219     1   0.15375 251793.120000
    210    213     1   0.15375 251793.120000
    213    222     1   0.15375 251793.120000
    216    228     1   0.15375 251793.120000
    219    225     1   0.15375 251793.120000
    222    231     1   0.14316 258236.480000
    225    492     1   0.14316 258236.480000
    228    521     1   0.14316 258236.480000
    232    233     1   0.14647 272713.120000
    232    236     1   0.14647 272713.120000
    232    239     1   0.14647 272713.120000
    233    245     1   0.15375 251793.120000
    236    248     1   0.15375 251793.120000
    239    242     1   0.15375 251793.120000
    242    251     1   0.15375 251793.120000
    245    257     1   0.15375 251793.120000
    248    254     1   0.15375 251793.120000
    251    260     1   0.14316 258236.480000
    254    550     1   0.14316 258236.480000
    257    579     1   0.14316 258236.480000
    261    262     1   0.14647 272713.120000
    261    265     1   0.14647 272713.120000
    261    268     1   0.14647 272713.120000
    262    274     1   0.15375 251793.120000
    265    277     1   0.15375 251793.120000
    268    271     1   0.15375 251793.120000
    271    280     1   0.15375 251793.120000
    274    286     1   0.15375 251793.120000
    277    283     1   0.15375 251793.120000
    280    289     1   0.14316 258236.480000
    283    608     1   0.14316 258236.480000
    286    637     1   0.14316 258236.480000
    290    291     1   0.14647 272713.120000
    290    294     1   0.14647 272713.120000
    290    297     1   0.14647 272713.120000
    291    303     1   0.15375 251793.120000
    294    306     1   0.15375 251793.120000
    297    300     1   0.15375 251793.120000
    300    309     1   0.15375 251793.120000
    303    315     1   0.15375 251793.120000
    306    312     1   0.15375 251793.120000
    309    318     1   0.14316 258236.480000
    312    666     1   0.14316 258236.480000
    315    695     1   0.14316 258236.480000
    319    320     1   0.14647 272713.120000
    319    323     1   0.14647 272713.120000
    319    326     1   0.14647 272713.120000
    320    332     1   0.15375 251793.120000
    323    335     1   0.15375 251793.120000
    326    329     1   0.15375 251793.120000
    329    338     1   0.15375 251793.120000
    332    344     1   0.15375 251793.120000
    335    341     1   0.15375 251793.120000
    338    347     1   0.14316 258236.480000
    341    724     1   0.14316 258236.480000
    344    753     1   0.14316 258236.480000
    348    349     1   0.14647 272713.120000
    348    352     1   0.14647 272713.120000
    348    355     1   0.14647 272713.120000
    349    361     1   0.15375 251793.120000
    352    364     1   0.15375 251793.120000
    355    358     1   0.15375 251793.120000
    358    367     1   0.15375 251793.120000
    361    373     1   0.15375 251793.120000
    364    370     1   0.15375 251793.120000
    367    376     1   0.14316 258236.480000
    370    782     1   0.14316 258236.480000
    373    811     1   0.14316 258236.480000
    377    378     1   0.14647 272713.120000
    377    381     1   0.14647 272713.120000
    377    384     1   0.14647 272713.120000
    378    390     1   0.15375 251793.120000
    381    393     1   0.15375 251793.120000
    384    387     1   0.15375 251793.120000
    387    396     1   0.15375 251793.120000
    390    402     1   0.15375 251793.120000
    393    399     1   0.15375 251793.120000
    396    405     1   0.14316 258236.480000
    399    840     1   0.14316 258236.480000
    402    869     1   0.14316 258236.480000
    406    407     1   0.14647 272713.120000
    406    410     1   0.14647 272713.120000
    406    413     1   0.14647 272713.120000
    407    419     1   0.15375 251793.120000
    410    422     1   0.15375 251793.120000
    413    416     1   0.15375 251793.120000
    416    425     1   0.15375 251793.120000
    419    431     1   0.15375 251793.120000
    422    428     1   0.15375 251793.120000
    425    434     1   0.14316 258236.480000
    428    898     1   0.14316 258236.480000
    431    927     1   0.14316 258236.480000
    435    436     1   0.14647 272713.120000
    435    439     1   0.14647 272713.120000
    435    442     1   0.14647 272713.120000
    436    448     1   0.15375 251793.120000
    439    451     1   0.15375 251793.120000
    442    445     1   0.15375 251793.120000
    445    454     1   0.15375 251793.120000
    448    460     1   0.15375 251793.120000
    451    457     1   0.15375 251793.120000
    454    463     1   0.14316 258236.480000
    457    956     1   0.14316 258236.480000
    460    985     1   0.14316 258236.480000
    464    465     1   0.14647 272713.120000
    464    468     1   0.14647 272713.120000
    464    471     1   0.14647 272713.120000
    465    477     1   0.15375 251793.120000
    468    480     1   0.15375 251793.120000
    471    474     1   0.15375 251793.120000
    474    483     1   0.15375 251793.120000
    477    489     1   0.15375 251793.120000
    480    486     1   0.15375 251793.120000
    483    492     1   0.14316 258236.480000
    486   1014     1   0.14316 258236.480000
    489   1043     1   0.14316 258236.480000
    493    494     1   0.14647 272713.120000
    493    497     1   0.14647 272713.120000
    493    500     1   0.14647 272713.120000
    494    506     1   0.15375 251793.120000
    497    509     1   0.15375 251793.120000
    500    503     1   0.15375 251793.120000
    503    512     1   0.15375 251793.120000
    506    518     1   0.15375 251793.120000
    509    515     1   0.15375 251793.120000
    512    521     1   0.14316 258236.480000
    515   1072     1   0.14316 258236.480000
    518   1101     1   0.14316 258236.480000
    522    523     1   0.14647 272713.120000
    522    526     1   0.14647 272713.120000
    522    529     1   0.14647 272713.120000
    523    535     1   0.15375 251793.120000
    526    538     1   0.15375 251793.120000
    529    532     1   0.15375 251793.120000
    532    541     1   0.15375 251793.120000
    535    547     1   0.15375 251793.120000
    538    544     1   0.15375 251793.120000
    541    550     1   0.14316 258236.480000
    544   1130     1   0.14316 258236.480000
    547   1159     1   0.14316 258236.480000
    551    552     1   0.14647 272713.120000
    551    555     1   0.14647 272713.120000
    551    558     1   0.14647 272713.120000
    552    564     1   0.15375 251793.120000
    555    567     1   0.15375 251793.120000
    558    561     1   0.15375 251793.120000
    561    570     1   0.15375 251793.120000
    564    576     1   0.15375 251793.120000
    567    573     1   0.15375 251793.120000
    570    579     1   0.14316 258236.480000
    573   1188     1   0.14316 258236.480000
    576   1217     1   0.14316 258236.480000
    580    581     1   0.14647 272713.120000
    580    584     1   0.14647 272713.120000
    580    587     1   0.14647 272713.120000
    581    593     1   0.15375 251793.120000
    584    596     1   0.15375 251793.120000
    587    590     1   0.15375 251793.120000
    590    599     1   0.15375 251793.120000
    593    605     1   0.15375 251793.120000
    596    602     1   0.15375 251793.120000
    599    608     1   0.14316 258236.480000
    602   1246     1   0.14316 258236.480000
    605   1275     1   0.14316 258236.480000
    609    610     1   0.14647 272713.120000
    609    613     1   0.14647 272713.120000
    609    616     1   0.14647 272713.120000
    610    622     1   0.15375 251793.120000
    613    625     1   0.15375 251793.120000
    616    619     1   0.15375 251793.120000
    619    628     1   0.15375 251793.120000
    622    634     1   0.15375 251793.120000
    625    631     1   0.15375 251793.120000
    628    637     1   0.14316 258236.480000
    631   1304     1   0.14316 258236.480000
    634   1333     1   0.14316 258236.480000
    638    639     1   0.14647 272713.120000
    638    642     1   0.14647 272713.120000
    638    645     1   0.14647 272713.120000
    639    651     1   0.15375 251793.120000
    642    654     1   0.15375 251793.120000
    645    648     1   0.15375 251793.120000
    648    657     1   0.15375 251793.120000
    651    663     1   0.15375 251793.120000
    654    660     1   0.15375 251793.120000
    657    666     1   0.14316 258236.480000
    660   1362     1   0.14316 258236.480000
    663   1391     1   0.14316 258236.480000
    667    668     1   0.14647 272713.120000
    667    671     1   0.14647 272713.120000
    667    674     1   0.14647 272713.120000
    668    680     1   0.15375 251793.120000
    671    683     1   0.15375 251793.120000
    674    677     1   0.15375 251793.120000
    677    686     1   0.15375 251793.120000
    680    692     1   0.15375 251793.120000
    683    689     1   0.15375 251793.120000
    686    695     1   0.14316 258236.480000
    689   1420     1   0.14316 258236.480000
    692   1449     1   0.14316 258236.480000
    696    697     1   0.14647 272713.120000
    696    700     1   0.14647 272713.120000
    696    703     1   0.14647 272713.120000
    697    709     1   0.15375 251793.120000
    700    712     1   0.15375 251793.120000
    703    706     1   0.15375 251793.120000
    706    715     1   0.15375 251793.120000
    709    721     1   0.15375 251793.120000
    712    718     1   0.15375 251793.120000
    715    724     1   0.14316 258236.480000
    718   1478     1   0.14316 258236.480000
    721   1507     1   0.14316 258236.480000
    725    726     1   0.14647 272713.120000
    725    729     1   0.14647 272713.120000
    725    732     1   0.14647 272713.120000
    726    738     1   0.15375 251793.120000
    729    741     1   0.15375 251793.120000
    732    735     1   0.15375 251793.120000
    735    744     1   0.15375 251793.120000
    738    750     1   0.15375 251793.120000
    741    747     1   0.15375 251793.120000
    744    753     1   0.14316 258236.480000
    747   1536     1   0.14316 258236.480000
    750   1565     1   0.14316 258236.480000
    754    755     1   0.14647 272713.120000
    754    758     1   0.14647 272713.120000
    754    761     1   0.14647 272713.120000
    755    767     1   0.15375 251793.120000
    758    770     1   0.15375 251793.120000
    761    764     1   0.15375 251793.120000
    764    773     1   0.15375 251793.120000
    767    779     1   0.15375 251793.120000
    770    776     1   0.15375 251793.120000
    773    782     1   0.14316 258236.480000
    776   1594     1   0.14316 258236.480000
    779   1623     1   0.14316 258236.480000
    783    784     1   0.14647 272713.120000
    783    787     1   0.14647 272713.120000
    783    790     1   0.14647 272713.120000
    784    796     1   0.15375 251793.120000
    787    799     1   0.15375 251793.120000
    790    793     1   0.15375 251793.120000
    793    802     1   0.15375 251793.120000
    796    808     1   0.15375 251793.120000
    799    805     1   0.15375 251793.120000
    802    811     1   0.14316 258236.480000
    805   1652     1   0.14316 258236.480000
    808   1681     1   0.14316 258236.480000
    812    813     1   0.14647 272713.120000
    812    816     1   0.14647 272713.120000
    812    819     1   0.14647 272713.120000
    813    825     1   0.15375 251793.120000
    816    828     1   0.15375 251793.120000
    819    822     1   0.15375 251793.120000
    822    831     1   0.15375 251793.120000
    825    837     1   0.15375 251793.120000
    828    834     1   0.15375 251793.120000
    831    840     1   0.14316 258236.480000
    834   1710     1   0.14316 258236.480000
    837   1739     1   0.14316 258236.480000
    841    842     1   0.14647 272713.120000
    841    845     1   0.14647 272713.120000
    841    848     1   0.14647 272713.120000
    842    854     1   0.15375 251793.120000
    845    857     1   0.15375 251793.120000
    848    851     1   0.15375 251793.120000
    851    860     1   0.15375 251793.120000
    854    866     1   0.15375 251793.120000
    857    863     1   0.15375 251793.120000
    860    869     1   0.14316 258236.480000
    863   1768     1   0.14316 258236.480000
    866   1797     1   0.14316 258236.480000
    870    871     1   0.14647 272713.120000
    870    874     1   0.14647 272713.120000
    870    877     1   0.14647 272713.120000
    871    883     1   0.15375 251793.120000
    874    886     1   0.15375 251793.120000
    877    880     1   0.15375 251793.120000
    880    889     1   0.15375 251793.120000
    883    895     1   0.15375 251793.120000
    886    892     1   0.15375 251793.120000
    889    898     1   0.14316 258236.480000
    892   1826     1   0.14316 258236.480000
    895   1855     1   0.14316 258236.480000
    899    900     1   0.14647 272713.120000
    899    903     1   0.14647 272713.120000
    899    906     1   0.14647 272713.120000
    900    912     1   0.15375 251793.120000
    903    915     1   0.15375 251793.120000
    906    909     1   0.15375 251793.120000
    909    918     1   0.15375 251793.120000
    912    924     1   0.15375 251793.120000
    915    921     1   0.15375 251793.120000
    918    927     1   0.14316 258236.480000
    921   1884     1   0.14316 258236.480000
    924   1913     1   0.14316 258236.480000
    928    929     1   0.14647 272713.120000
    928    932     1   0.14647 272713.120000
    928    935     1   0.14647 272713.120000
    929    941     1   0.15375 251793.120000
    932    944     1   0.15375 251793.120000
    935    938     1   0.15375 251793.120000
    938    947     1   0.15375 251793.120000
    941    953     1   0.15375 251793.120000
    944    950     1   0.15375 251793.120000
    947    956     1   0.14316 258236.480000
    950   1942     1   0.14316 258236.480000
    953   1971     1   0.14316 258236.480000
    957    958     1   0.14647 272713.120000
    957    961     1   0.14647 272713.120000
    957    964     1   0.14647 272713.120000
    958    970     1   0.15375 251793.120000
    961    973     1   0.15375 251793.120000
    964    967     1   0.15375 251793.120000
    967    976     1   0.15375 251793.120000
    970    982     1   0.15375 251793.120000
    973    979     1   0.15375 251793.120000
    976    985     1   0.14316 258236.480000
    979   2000     1   0.14316 258236.480000
    982   2029     1   0.14316 258236.480000
    986    987     1   0.14647 272713.120000
    986    990     1   0.14647 272713.120000
    986    993     1   0.14647 272713.120000
    987    999     1   0.15375 251793.120000
    990   1002     1   0.15375 251793.120000
    993    996     1   0.15375 251793.120000
    996   1005     1   0.15375 251793.120000
    999   1011     1   0.15375 251793.120000
   1002   1008     1   0.15375 251793.120000
   1005   1014     1   0.14316 258236.480000
   1008   2058     1   0.14316 258236.480000
   1011   2087     1   0.14316 258236.480000
   1015   1016     1   0.14647 272713.120000
   1015   1019     1   0.14647 272713.120000
   1015   1022     1   0.14647 272713.120000
   1016   1028     1   0.15375 251793.120000
   1019   1031     1   0.15375 251793.120000
   1022   1025     1   0.15375 251793.120000
   1025   1034     1   0.15375 251793.120000
   1028   1040     1   0.15375 251793.120000
   1031   1037     1   0.15375 251793.120000
   1034   1043     1   0.14316 258236.480000
   1037   2116     1   0.14316 258236.480000
   1040   2145     1   0.14316 258236.480000
   1044   1045     1   0.14647 272713.120000
   1044   1048     1   0.14647 272713.120000
   1044   1051     1   0.14647 272713.120000
   1045   1057     1   0.15375 251793.120000
   1048   1060     1   0.15375 251793.120000
   1051   1054     1   0.15375 251793.120000
   1054   1063     1   0.15375 251793.120000
   1057   1069     1   0.15375 251793.120000
   1060   1066     1   0.15375 251793.120000
   1063   1072     1   0.14316 258236.480000
   1066   2174     1   0.14316 258236.480000
   1069   2203     1   0.14316 258236.480000
   1073   1074     1   0.14647 272713.120000
   1073   1077     1   0.14647 272713.120000
   1073   1080     1   0.14647 272713.120000
   1074   1086     1   0.15375 251793.120000
   1077   1089     1   0.15375 251793.120000
   1080   1083     1   0.15375 251793.120000
   1083   1092     1   0.15375 251793.120000
   1086   1098     1   0.15375 251793.120000
   1089   1095     1   0.15375 251793.120000
   1092   1101     1   0.14316 258236.480000
   1095   2232     1   0.14316 258236.480000
   1098   2261     1   0.14316 258236.480000
   1102   1103     1   0.14647 272713.120000
   1102   1106     1   0.14647 272713.120000
   1102   1109     1   0.14647 272713.120000
   1103   1115     1   0.15375 251793.120000
   1106   1118     1   0.15375 251793.120000
   1109   1112     1   0.15375 251793.120000
   1112   1121     1   0.15375 251793.120000
   1115   1127     1   0.15375 251793.120000
   1118   1124     1   0.15375 251793.120000
   1121   1130     1   0.14316 258236.480000
   1124   2290     1   0.14316 258236.480000
   1127   2319     1   0.14316 258236.480000
   1131   1132     1   0.14647 272713.120000
   1131   1135     1   0.14647 272713.120000
   1131   1138     1   0.14647 272713.120000
   1132   1144     1   0.15375 251793.120000
   1135   1147     1   0.15375 251793.120000
   1138   1141     1   0.15375 251793.120000
   1141   1150     1   0.15375 251793.120000
   1144   1156     1   0.15375 251793.120000
   1147   1153     1   0.15375 251793.120000
   1150   1159     1   0.14316 258236.480000
   1153   2348     1   0.14316 258236.480000
   1156   2377     1   0.14316 258236.480000
   1160   1161     1   0.14647 272713.120000
   1160   1164     1   0.14647 272713.120000
   1160   1167     1   0.14647 272713.120000
   1161   1173     1   0.15375 251793.120000
   1164   1176     1   0.15375 251793.120000
   1167   1170     1   0.15375 251793.120000
   1170   1179     1   0.15375 251793.120000
   1173   1185     1   0.15375 251793.120000
   1176   1182     1   0.15375 251793.120000
   1179   1188     1   0.14316 258236.480000
   1182   2406     1   0.14316 258236.480000
   1185   2435     1   0.14316 258236.480000
   1189   1190     1   0.14647 272713.120000
   1189   1193     1   0.14647 272713.120000
   1189   1196     1   0.14647 272713.120000
   1190   1202     1   0.15375 251793.120000
   1193   1205     1   0.15375 251793.120000
   1196   1199     1   0.15375 251793.120000
   1199   1208     1   0.15375 251793.120000
   1202   1214     1   0.15375 251793.120000
   1205   1211     1   0.15375 251793.120000
   1208   1217     1   0.14316 258236.480000
   1211   2464     1   0.14316 258236.480000
   1214   2493     1   0.14316 258236.480000
   1218   1219     1   0.14647 272713.120000
   1218   1222     1   0.14647 272713.120000
   1218   1225     1   0.14647 272713.120000
   1219   1231     1   0.15375 251793.120000
   1222   1234     1   0.15375 251793.120000
   1225   1228     1   0.15375 251793.120000
   1228   1237     1   0.15375 251793.120000
   1231   1243     1   0.15375 251793.120000
   1234   1240     1   0.15375 251793.120000
   1237   1246     1   0.14316 258236.480000
   1240   2522     1   0.14316 258236.480000
   1243   2551     1   0.14316 258236.480000
   1247   1248     1   0.14647 272713.120000
   1247   1251     1   0.14647 272713.120000
   1247   1254     1   0.14647 272713.120000
   1248   1260     1   0.15375 251793.120000
   1251   1263     1   0.15375 251793.120000
   1254   1257     1   0.15375 251793.120000
   1257   1266     1   0.15375 251793.120000
   1260   1272     1   0.15375 251793.120000
   1263   1269     1   0.15375 251793.120000
   1266   1275     1   0.14316 258236.480000
   1269   2580     1   0.14316 258236.480000
   1272   2609     1   0.14316 258236.480000
   1276   1277     1   0.14647 272713.120000
   1276   1280     1   0.14647 272713.120000
   1276   1283     1   0.14647 272713.120000
   1277   1289     1   0.15375 251793.120000
   1280   1292     1   0.15375 251793.120000
   1283   1286     1   0.15375 251793.120000
   1286   1295     1   0.15375 251793.120000
   1289   1301     1   0.15375 251793.120000
   1292   1298     1   0.15375 251793.120000
   1295   1304     1   0.14316 258236.480000
   1298   2638     1   0.14316 258236.480000
   1301   2667     1   0.14316 258236.480000
   1305   1306     1   0.14647 272713.120000
   1305   1309     1   0.14647 272713.120000
   1305   1312     1   0.14647 272713.120000
   1306   1318     1   0.15375 251793.120000
   1309   1321     1   0.15375 251793.120000
   1312   1315     1   0.15375 251793.120000
   1315   1324     1   0.15375 251793.120000
   1318   1330     1   0.15375 251793.120000
   1321   1327     1   0.15375 251793.120000
   1324   1333     1   0.14316 258236.480000
   1327   2696     1   0.14316 258236.480000
   1330   2725     1   0.14316 258236.480000
   1334   1335     1   0.14647 272713.120000
   1334   1338     1   0.14647 272713.120000
   1334   1341     1   0.14647 272713.120000
   1335   1347     1   0.15375 251793.120000
   1338   1350     1   0.15375 251793.120000
   1341   1344     1   0.15375 251793.120000
   1344   1353     1   0.15375 251793.120000
   1347   1359     1   0.15375 251793.120000
   1350   1356     1   0.15375 251793.120000
   1353   1362     1   0.14316 258236.480000
   1356   2756     1   0.14316 258236.480000
   1359   2787     1   0.14316 258236.480000
   1363   1364     1   0.14647 272713.120000
   1363   1367     1   0.14647 272713.120000
   1363   1370     1   0.14647 272713.120000
   1364   1376     1   0.15375 251793.120000
   1367   1379     1   0.15375 251793.120000
   1370   1373     1   0.15375 251793.120000
   1373   1382     1   0.15375 251793.120000
   1376   1388     1   0.15375 251793.120000
   1379   1385     1   0.15375 251793.120000
   1382   1391     1   0.14316 258236.480000
   1385   2818     1   0.14316 258236.480000
   1388   2849     1   0.14316 258236.480000
   1392   1393     1   0.14647 272713.120000
   1392   1396     1   0.14647 272713.120000
   1392   1399     1   0.14647 272713.120000
   1393   1405     1   0.15375 251793.120000
   1396   1408     1   0.15375 251793.120000
   1399   1402     1   0.15375 251793.120000
   1402   1411     1   0.15375 251793.120000
   1405   1417     1   0.15375 251793.120000
   1408   1414     1   0.15375 251793.120000
   1411   1420     1   0.14316 258236.480000
   1414   2880     1   0.14316 258236.480000
   1417   2911     1   0.14316 258236.480000
   1421   1422     1   0.14647 272713.120000
   1421   1425     1   0.14647 272713.120000
   1421   1428     1   0.14647 272713.120000
   1422   1434     1   0.15375 251793.120000
   1425   1437     1   0.15375 251793.120000
   1428   1431     1   0.15375 251793.120000
   1431   1440     1   0.15375 251793.120000
   1434   1446     1   0.15375 251793.120000
   1437   1443     1   0.15375 251793.120000
   1440   1449     1   0.14316 258236.480000
   1443   2942     1   0.14316 258236.480000
   1446   2973     1   0.14316 258236.480000
   1450   1451     1   0.14647 272713.120000
   1450   1454     1   0.14647 272713.120000
   1450   1457     1   0.14647 272713.120000
   1451   1463     1   0.15375 251793.120000
   1454   1466     1   0.15375 251793.120000
   1457   1460     1   0.15375 251793.120000
   1460   1469     1   0.15375 251793.120000
   1463   1475     1   0.15375 251793.120000
   1466   1472     1   0.15375 251793.120000
   1469   1478     1   0.14316 258236.480000
   1472   3004     1   0.14316 258236.480000
   1475   3035     1   0.14316 258236.480000
   1479   1480     1   0.14647 272713.120000
   1479   1483     1   0.14647 272713.120000
   1479   1486     1   0.14647 272713.120000
   1480   1492     1   0.15375 251793.120000
   1483   1495     1   0.15375 251793.120000
   1486   1489     1   0.15375 251793.120000
   1489   1498     1   0.15375 251793.120000
   1492   1504     1   0.15375 251793.120000
   1495   1501     1   0.15375 251793.120000
   1498   1507     1   0.14316 258236.480000
   1501   3066     1   0.14316 258236.480000
   1504   3097     1   0.14316 258236.480000
   1508   1509     1   0.14647 272713.120000
   1508   1512     1   0.14647 272713.120000
   1508   1515     1   0.14647 272713.120000
   1509   1521     1   0.15375 251793.120000
   1512   1524     1   0.15375 251793.120000
   1515   1518     1   0.15375 251793.120000
   1518   1527     1   0.15375 251793.120000
   1521   1533     1   0.15375 251793.120000
   1524   1530     1   0.15375 251793.120000
   1527   1536     1   0.14316 258236.480000
   1530   3128     1   0.14316 258236.480000
   1533   3159     1   0.14316 258236.480000
   1537   1538     1   0.14647 272713.120000
   1537   1541     1   0.14647 272713.120000
   1537   1544     1   0.14647 272713.120000
   1538   1550     1   0.15375 251793.120000
   1541   1553     1   0.15375 251793.120000
   1544   1547     1   0.15375 251793.120000
   1547   1556     1   0.15375 251793.120000
   1550   1562     1   0.15375 251793.120000
   1553   1559     1   0.15375 251793.120000
   1556   1565     1   0.14316 258236.480000
   1559   3190     1   0.14316 258236.480000
   1562   3221     1   0.14316 258236.480000
   1566   1567     1   0.14647 272713.120000
   1566   1570     1   0.14647 272713.120000
   1566   1573     1   0.14647 272713.120000
   1567   1579     1   0.15375 251793.120000
   1570   1582     1   0.15375 251793.120000
   1573   1576     1   0.15375 251793.120000
   1576   1585     1   0.15375 251793.120000
   1579   1591     1   0.15375 251793.120000
   1582   1588     1   0.15375 251793.120000
   1585   1594     1   0.14316 258236.480000
   1588   3252     1   0.14316 258236.480000
   1591   3283     1   0.14316 258236.480000
   1595   1596     1   0.14647 272713.120000
   1595   1599     1   0.14647 272713.120000
   1595   1602     1   0.14647 272713.120000
   1596   1608     1   0.15375 251793.120000
   1599   1611     1   0.15375 251793.120000
   1602   1605     1   0.15375 251793.120000
   1605   1614     1   0.15375 251793.120000
   1608   1620     1   0.15375 251793.120000
   1611   1617     1   0.15375 251793.120000
   1614   1623     1   0.14316 258236.480000
   1617   3314     1   0.14316 258236.480000
   1620   3345     1   0.14316 258236.480000
   1624   1625     1   0.14647 272713.120000
   1624   1628     1   0.14647 272713.120000
   1624   1631     1   0.14647 272713.120000
   1625   1637     1   0.15375 251793.120000
   1628   1640     1   0.15375 251793.120000
   1631   1634     1   0.15375 251793.120000
   1634   1643     1   0.15375 251793.120000
   1637   1649     1   0.15375 251793.120000
   1640   1646     1   0.15375 251793.120000
   1643   1652     1   0.14316 258236.480000
   1646   3376     1   0.14316 258236.480000
   1649   3407     1   0.14316 258236.480000
   1653   1654     1   0.14647 272713.120000
   1653   1657     1   0.14647 272713.120000
   1653   1660     1   0.14647 272713.120000
   1654   1666     1   0.15375 251793.120000
   1657   1669     1   0.15375 251793.120000
   1660   1663     1   0.15375 251793.120000
   1663   1672     1   0.15375 251793.120000
   1666   1678     1   0.15375 251793.120000
   1669   1675     1   0.15375 251793.120000
   1672   1681     1   0.14316 258236.480000
   1675   3438     1   0.14316 258236.480000
   1678   3469     1   0.14316 258236.480000
   1682   1683     1   0.14647 272713.120000
   1682   1686     1   0.14647 272713.120000
   1682   1689     1   0.14647 272713.120000
   1683   1695     1   0.15375 251793.120000
   1686   1698     1   0.15375 251793.120000
   1689   1692     1   0.15375 251793.120000
   1692   1701     1   0.15375 251793.120000
   1695   1707     1   0.15375 251793.120000
   1698   1704     1   0.15375 251793.120000
   1701   1710     1   0.14316 258236.480000
   1704   3500     1   0.14316 258236.480000
   1707   3531     1   0.14316 258236.480000
   1711   1712     1   0.14647 272713.120000
   1711   1715     1   0.14647 272713.120000
   1711   1718     1   0.14647 272713.120000
   1712   1724     1   0.15375 251793.120000
   1715   1727     1   0.15375 251793.120000
   1718   1721     1   0.15375 251793.120000
   1721   1730     1   0.15375 251793.120000
   1724   1736     1   0.15375 251793.120000
   1727   1733     1   0.15375 251793.120000
   1730   1739     1   0.14316 258236.480000
   1733   3562     1   0.14316 258236.480000
   1736   3593     1   0.14316 258236.480000
   1740   1741     1   0.14647 272713.120000
   1740   1744     1   0.14647 272713.120000
   1740   1747     1   0.14647 272713.120000
   1741   1753     1   0.15375 251793.120000
   1744   1756     1   0.15375 251793.120000
   1747   1750     1   0.15375 251793.120000
   1750   1759     1   0.15375 251793.120000
   1753   1765     1   0.15375 251793.120000
   1756   1762     1   0.15375 251793.120000
   1759   1768     1   0.14316 258236.480000
   1762   3624     1   0.14316 258236.480000
   1765   3655     1   0.14316 258236.480000
   1769   1770     1   0.14647 272713.120000
   1769   1773     1   0.14647 272713.120000
   1769   1776     1   0.14647 272713.120000
   1770   1782     1   0.15375 251793.120000
   1773   1785     1   0.15375 251793.120000
   1776   1779     1   0.15375 251793.120000
   1779   1788     1   0.15375 251793.120000
   1782   1794     1   0.15375 251793.120000
   1785   1791     1   0.15375 251793.120000
   1788   1797     1   0.14316 258236.480000
   1791   3686     1   0.14316 258236.480000
   1794   3717     1   0.14316 258236.480000
   1798   1799     1   0.14647 272713.120000
   1798   1802     1   0.14647 272713.120000
   1798   1805     1   0.14647 272713.120000
   1799   1811     1   0.15375 251793.120000
   1802   1814     1   0.15375 251793.120000
   1805   1808     1   0.15375 251793.120000
   1808   1817     1   0.15375 251793.120000
   1811   1823     1   0.15375 251793.120000
   1814   1820     1   0.15375 251793.120000
   1817   1826     1   0.14316 258236.480000
   1820   3748     1   0.14316 258236.480000
   1823   3779     1   0.14316 258236.480000
   1827   1828     1   0.14647 272713.120000
   1827   1831     1   0.14647 272713.120000
   1827   1834     1   0.14647 272713.120000
   1828   1840     1   0.15375 251793.120000
   1831   1843     1   0.15375 251793.120000
   1834   1837     1   0.15375 251793.120000
   1837   1846     1   0.15375 251793.120000
   1840   1852     1   0.15375 251793.120000
   1843   1849     1   0.15375 251793.120000
   1846   1855     1   0.14316 258236.480000
   1849   3810     1   0.14316 258236.480000
   1852   3841     1   0.14316 258236.480000
   1856   1857     1   0.14647 272713.120000
   1856   1860     1   0.14647 272713.120000
   1856   1863     1   0.14647 272713.120000
   1857   1869     1   0.15375 251793.120000
   1860   1872     1   0.15375 251793.120000
   1863   1866     1   0.15375 251793.120000
   1866   1875     1   0.15375 251793.120000
   1869   1881     1   0.15375 251793.120000
   1872   1878     1   0.15375 251793.120000
   1875   1884     1   0.14316 258236.480000
   1878   3872     1   0.14316 258236.480000
   1881   3903     1   0.14316 258236.480000
   1885   1886     1   0.14647 272713.120000
   1885   1889     1   0.14647 272713.120000
   1885   1892     1   0.14647 272713.120000
   1886   1898     1   0.15375 251793.120000
   1889   1901     1   0.15375 251793.120000
   1892   1895     1   0.15375 251793.120000
   1895   1904     1   0.15375 251793.120000
   1898   1910     1   0.15375 251793.120000
   1901   1907     1   0.15375 251793.120000
   1904   1913     1   0.14316 258236.480000
   1907   3934     1   0.14316 258236.480000
   1910   3965     1   0.14316 258236.480000
   1914   1915     1   0.14647 272713.120000
   1914   1918     1   0.14647 272713.120000
   1914   1921     1   0.14647 272713.120000
   1915   1927     1   0.15375 251793.120000
   1918   1930     1   0.15375 251793.120000
   1921   1924     1   0.15375 251793.120000
   1924   1933     1   0.15375 251793.120000
   1927   1939     1   0.15375 251793.120000
   1930   1936     1   0.15375 251793.120000
   1933   1942     1   0.14316 258236.480000
   1936   3996     1   0.14316 258236.480000
   1939   4027     1   0.14316 258236.480000
   1943   1944     1   0.14647 272713.120000
   1943   1947     1   0.14647 272713.120000
   1943   1950     1   0.14647 272713.120000
   1944   1956     1   0.15375 251793.120000
   1947   1959     1   0.15375 251793.120000
   1950   1953     1   0.15375 251793.120000
   1953   1962     1   0.15375 251793.120000
   1956   1968     1   0.15375 251793.120000
   1959   1965     1   0.15375 251793.120000
   1962   1971     1   0.14316 258236.480000
   1965   4058     1   0.14316 258236.480000
   1968   4089     1   0.14316 258236.480000
   1972   1973     1   0.14647 272713.120000
   1972   1976     1   0.14647 272713.120000
   1972   1979     1   0.14647 272713.120000
   1973   1985     1   0.15375 251793.120000
   1976   1988     1   0.15375 251793.120000
   1979   1982     1   0.15375 251793.120000
   1982   1991     1   0.15375 251793.120000
   1985   1997     1   0.15375 251793.120000
   1988   1994     1   0.15375 251793.120000
   1991   2000     1   0.14316 258236.480000
   1994   4120     1   0.14316 258236.480000
   1997   4151     1   0.14316 258236.480000
   2001   2002     1   0.14647 272713.120000
   2001   2005     1   0.14647 272713.120000
   2001   2008     1   0.14647 272713.120000
   2002   2014     1   0.15375 251793.120000
   2005   2017     1   0.15375 251793.120000
   2008   2011     1   0.15375 251793.120000
   2011   2020     1   0.15375 251793.120000
   2014   2026     1   0.15375 251793.120000
   2017   2023     1   0.15375 251793.120000
   2020   2029     1   0.14316 258236.480000
   2023   4182     1   0.14316 258236.480000
   2026   4213     1   0.14316 258236.480000
   2030   2031     1   0.14647 272713.120000
   2030   2034     1   0.14647 272713.120000
   2030   2037     1   0.14647 272713.120000
   2031   2043     1   0.15375 251793.120000
   2034   2046     1   0.15375 251793.120000
   2037   2040     1   0.15375 251793.120000
   2040   2049     1   0.15375 251793.120000
   2043   2055     1   0.15375 251793.120000
   2046   2052     1   0.15375 251793.120000
   2049   2058     1   0.14316 258236.480000
   2052   4244     1   0.14316 258236.480000
   2055   4275     1   0.14316 258236.480000
   2059   2060     1   0.14647 272713.120000
   2059   2063     1   0.14647 272713.120000
   2059   2066     1   0.14647 272713.120000
   2060   2072     1   0.15375 251793.120000
   2063   2075     1   0.15375 251793.120000
   2066   2069     1   0.15375 251793.120000
   2069   2078     1   0.15375 251793.120000
   2072   2084     1   0.15375 251793.120000
   2075   2081     1   0.15375 251793.120000
   2078   2087     1   0.14316 258236.480000
   2081   4306     1   0.14316 258236.480000
   2084   4337     1   0.14316 258236.480000
   2088   2089     1   0.14647 272713.120000
   2088   2092     1   0.14647 272713.120000
   2088   2095     1   0.14647 272713.120000
   2089   2101     1   0.15375 251793.120000
   2092   2104     1   0.15375 251793.120000
   2095   2098     1   0.15375 251793.120000
   2098   2107     1   0.15375 251793.120000
   2101   2113     1   0.15375 251793.120000
   2104   2110     1   0.15375 251793.120000
   2107   2116     1   0.14316 258236.480000
   2110   4368     1   0.14316 258236.480000
   2113   4399     1   0.14316 258236.480000
   2117   2118     1   0.14647 272713.120000
   2117   2121     1   0.14647 272713.120000
   2117   2124     1   0.14647 272713.120000
   2118   2130     1   0.15375 251793.120000
   2121   2133     1   0.15375 251793.120000
   2124   2127     1   0.15375 251793.120000
   2127   2136     1   0.15375 251793.120000
   2130   2142     1   0.15375 251793.120000
   2133   2139     1   0.15375 251793.120000
   2136   2145     1   0.14316 258236.480000
   2139   4430     1   0.14316 258236.480000
   2142   4461     1   0.14316 258236.480000
   2146   2147     1   0.14647 272713.120000
   2146   2150     1   0.14647 272713.120000
   2146   2153     1   0.14647 272713.120000
   2147   2159     1   0.15375 251793.120000
   2150   2162     1   0.15375 251793.120000
   2153   2156     1   0.15375 251793.120000
   2156   2165     1   0.15375 251793.120000
   2159   2171     1   0.15375 251793.120000
   2162   2168     1   0.15375 251793.120000
   2165   2174     1   0.14316 258236.480000
   2168   4492     1   0.14316 258236.480000
   2171   4523     1   0.14316 258236.480000
   2175   2176     1   0.14647 272713.120000
   2175   2179     1   0.14647 272713.120000
   2175   2182     1   0.14647 272713.120000
   2176   2188     1   0.15375 251793.120000
   2179   2191     1   0.15375 251793.120000
   2182   2185     1   0.15375 251793.120000
   2185   2194     1   0.15375 251793.120000
   2188   2200     1   0.15375 251793.120000
   2191   2197     1   0.15375 251793.120000
   2194   2203     1   0.14316 258236.480000
   2197   4554     1   0.14316 258236.480000
   2200   4585     1   0.14316 258236.480000
   2204   2205     1   0.14647 272713.120000
   2204   2208     1   0.14647 272713.120000
   2204   2211     1   0.14647 272713.120000
   2205   2217     1   0.15375 251793.120000
   2208   2220     1   0.15375 251793.120000
   2211   2214     1   0.15375 251793.120000
   2214   2223     1   0.15375 251793.120000
   2217   2229     1   0.15375 251793.120000
   2220   2226     1   0.15375 251793.120000
   2223   2232     1   0.14316 258236.480000
   2226   4616     1   0.14316 258236.480000
   2229   4647     1   0.14316 258236.480000
   2233   2234     1   0.14647 272713.120000
   2233   2237     1   0.14647 272713.120000
   2233   2240     1   0.14647 272713.120000
   2234   2246     1   0.15375 251793.120000
   2237   2249     1   0.15375 251793.120000
   2240   2243     1   0.15375 251793.120000
   2243   2252     1   0.15375 251793.120000
   2246   2258     1   0.15375 251793.120000
   2249   2255     1   0.15375 251793.120000
   2252   2261     1   0.14316 258236.480000
   2255   4678     1   0.14316 258236.480000
   2258   4709     1   0.14316 258236.480000
   2262   2263     1   0.14647 272713.120000
   2262   2266     1   0.14647 272713.120000
   2262   2269     1   0.14647 272713.120000
   2263   2275     1   0.15375 251793.120000
   2266   2278     1   0.15375 251793.120000
   2269   2272     1   0.15375 251793.120000
   2272   2281     1   0.15375 251793.120000
   2275   2287     1   0.15375 251793.120000
   2278   2284     1   0.15375 251793.120000
   2281   2290     1   0.14316 258236.480000
   2284   4740     1   0.14316 258236.480000
   2287   4771     1   0.14316 258236.480000
   2291   2292     1   0.14647 272713.120000
   2291   2295     1   0.14647 272713.120000
   2291   2298     1   0.14647 272713.120000
   2292   2304     1   0.15375 251793.120000
   2295   2307     1   0.15375 251793.120000
   2298   2301     1   0.15375 251793.120000
   2301   2310     1   0.15375 251793.120000
   2304   2316     1   0.15375 251793.120000
   2307   2313     1   0.15375 251793.120000
   2310   2319     1   0.14316 258236.480000
   2313   4802     1   0.14316 258236.480000
   2316   4833     1   0.14316 258236.480000
   2320   2321     1   0.14647 272713.120000
   2320   2324     1   0.14647 272713.120000
   2320   2327     1   0.14647 272713.120000
   2321   2333     1   0.15375 251793.120000
   2324   2336     1   0.15375 251793.120000
   2327   2330     1   0.15375 251793.120000
   2330   2339     1   0.15375 251793.120000
   2333   2345     1   0.15375 251793.120000
   2336   2342     1   0.15375 251793.120000
   2339   2348     1   0.14316 258236.480000
   2342   4864     1   0.14316 258236.480000
   2345   4895     1   0.14316 258236.480000
   2349   2350     1   0.14647 272713.120000
   2349   2353     1   0.14647 272713.120000
   2349   2356     1   0.14647 272713.120000
   2350   2362     1   0.15375 251793.120000
   2353   2365     1   0.15375 251793.120000
   2356   2359     1   0.15375 251793.120000
   2359   2368     1   0.15375 251793.120000
   2362   2374     1   0.15375 251793.120000
   2365   2371     1   0.15375 251793.120000
   2368   2377     1   0.14316 258236.480000
   2371   4926     1   0.14316 258236.480000
   2374   4957     1   0.14316 258236.480000
   2378   2379     1   0.14647 272713.120000
   2378   2382     1   0.14647 272713.120000
   2378   2385     1   0.14647 272713.120000
   2379   2391     1   0.15375 251793.120000
   2382   2394     1   0.15375 251793.120000
   2385   2388     1   0.15375 251793.120000
   2388   2397     1   0.15375 251793.120000
   2391   2403     1   0.15375 251793.120000
   2394   2400     1   0.15375 251793.120000
   2397   2406     1   0.14316 258236.480000
   2400   4988     1   0.14316 258236.480000
   2403   5019     1   0.14316 258236.480000
   2407   2408     1   0.14647 272713.120000
   2407   2411     1   0.14647 272713.120000
   2407   2414     1   0.14647 272713.120000
   2408   2420     1   0.15375 251793.120000
   2411   2423     1   0.15375 251793.120000
   2414   2417     1   0.15375 251793.120000
   2417   2426     1   0.15375 251793.120000
   2420   2432     1   0.15375 251793.120000
   2423   2429     1   0.15375 251793.120000
   2426   2435     1   0.14316 258236.480000
   2429   5050     1   0.14316 258236.480000
   2432   5081     1   0.14316 258236.480000
   2436   2437     1   0.14647 272713.120000
   2436   2440     1   0.14647 272713.120000
   2436   2443     1   0.14647 272713.120000
   2437   2449     1   0.15375 251793.120000
   2440   2452     1   0.15375 251793.120000
   2443   2446     1   0.15375 251793.120000
   2446   2455     1   0.15375 251793.120000
   2449   2461     1   0.15375 251793.120000
   2452   2458     1   0.15375 251793.120000
   2455   2464     1   0.14316 258236.480000
   2458   5112     1   0.14316 258236.480000
   2461   5143     1   0.14316 258236.480000
   2465   2466     1   0.14647 272713.120000
   2465   2469     1   0.14647 272713.120000
   2465   2472     1   0.14647 272713.120000
   2466   2478     1   0.15375 251793.120000
   2469   2481     1   0.15375 251793.120000
   2472   2475     1   0.15375 251793.120000
   2475   2484     1   0.15375 251793.120000
   2478   2490     1   0.15375 251793.120000
   2481   2487     1   0.15375 251793.120000
   2484   2493     1   0.14316 258236.480000
   2487   5174     1   0.14316 258236.480000
   2490   5205     1   0.14316 258236.480000
   2494   2495     1   0.14647 272713.120000
   2494   2498     1   0.14647 272713.120000
   2494   2501     1   0.14647 272713.120000
   2495   2507     1   0.15375 251793.120000
   2498   2510     1   0.15375 251793.120000
   2501   2504     1   0.15375 251793.120000
   2504   2513     1   0.15375 251793.120000
   2507   2519     1   0.15375 251793.120000
   2510   2516     1   0.15375 251793.120000
   2513   2522     1   0.14316 258236.480000
   2516   5236     1   0.14316 258236.480000
   2519   5267     1   0.14316 258236.480000
   2523   2524     1   0.14647 272713.120000
   2523   2527     1   0.14647 272713.120000
   2523   2530     1   0.14647 272713.120000
   2524   2536     1   0.15375 251793.120000
   2527   2539     1   0.15375 251793.120000
   2530   2533     1   0.15375 251793.120000
   2533   2542     1   0.15375 251793.120000
   2536   2548     1   0.15375 251793.120000
   2539   2545     1   0.15375 251793.120000
   2542   2551     1   0.14316 258236.480000
   2545   5298     1   0.14316 258236.480000
   2548   5329     1   0.14316 258236.480000
   2552   2553     1   0.14647 272713.120000
   2552   2556     1   0.14647 272713.120000
   2552   2559     1   0.14647 272713.120000
   2553   2565     1   0.15375 251793.120000
   2556   2568     1   0.15375 251793.120000
   2559   2562     1   0.15375 251793.120000
   2562   2571     1   0.15375 251793.120000
   2565   2577     1   0.15375 251793.120000
   2568   2574     1   0.15375 251793.120000
   2571   2580     1   0.14316 258236.480000
   2574   5360     1   0.14316 258236.480000
   2577   5391     1   0.14316 258236.480000
   2581   2582     1   0.14647 272713.120000
   2581   2585     1   0.14647 272713.120000
   2581   2588     1   0.14647 272713.120000
   2582   2594     1   0.15375 251793.120000
   2585   2597     1   0.15375 251793.120000
   2588   2591     1   0.15375 251793.120000
   2591   2600     1   0.15375 251793.120000
   2594   2606     1   0.15375 251793.120000
   2597   2603     1   0.15375 251793.120000
   2600   2609     1   0.14316 258236.480000
   2603   5422     1   0.14316 258236.480000
   2606   5453     1   0.14316 258236.480000
   2610   2611     1   0.14647 272713.120000
   2610   2614     1   0.14647 272713.120000
   2610   2617     1   0.14647 272713.120000
   2611   2623     1   0.15375 251793.120000
   2614   2626     1   0.15375 251793.120000
   2617   2620     1   0.15375 251793.120000
   2620   2629     1   0.15375 251793.120000
   2623   2635     1   0.15375 251793.120000
   2626   2632     1   0.15375 251793.120000
   2629   2638     1   0.14316 258236.480000
   2632   5484     1   0.14316 258236.480000
   2635   5515     1   0.14316 258236.480000
   2639   2640     1   0.14647 272713.120000
   2639   2643     1   0.14647 272713.120000
   2639   2646     1   0.14647 272713.120000
   2640   2652     1   0.15375 251793.120000
   2643   2655     1   0.15375 251793.120000
   2646   2649     1   0.15375 251793.120000
   2649   2658     1   0.15375 251793.120000
   2652   2664     1   0.15375 251793.120000
   2655   2661     1   0.15375 251793.120000
   2658   2667     1   0.14316 258236.480000
   2661   5546     1   0.14316 258236.480000
   2664   5577     1   0.14316 258236.480000
   2668   2669     1   0.14647 272713.120000
   2668   2672     1   0.14647 272713.120000
   2668   2675     1   0.14647 272713.120000
   2669   2681     1   0.15375 251793.120000
   2672   2684     1   0.15375 251793.120000
   2675   2678     1   0.15375 251793.120000
   2678   2687     1   0.15375 251793.120000
   2681   2693     1   0.15375 251793.120000
   2684   2690     1   0.15375 251793.120000
   2687   2696     1   0.14316 258236.480000
   2690   5608     1   0.14316 258236.480000
   2693   5639     1   0.14316 258236.480000
   2697   2698     1   0.14647 272713.120000
   2697   2701     1   0.14647 272713.120000
   2697   2704     1   0.14647 272713.120000
   2698   2710     1   0.15375 251793.120000
   2701   2713     1   0.15375 251793.120000
   2704   2707     1   0.15375 251793.120000
   2707   2716     1   0.15375 251793.120000
   2710   2722     1   0.15375 251793.120000
   2713   2719     1   0.15375 251793.120000
   2716   2725     1   0.14316 258236.480000
   2719   5670     1   0.14316 258236.480000
   2722   5701     1   0.14316 258236.480000
   2726   2729     1   0.15375 251793.120000
   2726   2756     1   0.14316 258236.480000
   2729   2732     1   0.15375 251793.120000
   2732   2735     1   0.14647 272713.120000
   2735   2736     1   0.14647 272713.120000
   2735   2746     1   0.14647 272713.120000
   2736   2739     1   0.15375 251793.120000
   2739   2742     1   0.15241 261918.400000
   2742   2743     1   0.12183 533627.360000
   2742   2744     1   0.13513 334803.680000
   2746   2749     1   0.15375 251793.120000
   2749   2752     1   0.15241 261918.400000
   2752   2753     1   0.12183 533627.360000
   2752   2754     1   0.13513 334803.680000
   2757   2760     1   0.15375 251793.120000
   2757   2787     1   0.14316 258236.480000
   2760   2763     1   0.15375 251793.120000
   2763   2766     1   0.14647 272713.120000
   2766   2767     1   0.14647 272713.120000
   2766   2777     1   0.14647 272713.120000
   2767   2770     1   0.15375 251793.120000
   2770   2773     1   0.15241 261918.400000
   2773   2774     1   0.12183 533627.360000
   2773   2775     1   0.13513 334803.680000
   2777   2780     1   0.15375 251793.120000
   2780   2783     1   0.15241 261918.400000
   2783   2784     1   0.12183 533627.360000
   2783   2785     1   0.13513 334803.680000
   2788   2791     1   0.15375 251793.120000
   2788   2818     1   0.14316 258236.480000
   2791   2794     1   0.15375 251793.120000
   2794   2797     1   0.14647 272713.120000
   2797   2798     1   0.14647 272713.120000
   2797   2808     1   0.14647 272713.120000
   2798   2801     1   0.15375 251793.120000
   2801   2804     1   0.15241 261918.400000
   2804   2805     1   0.12183 533627.360000
   2804   2806     1   0.13513 334803.680000
   2808   2811     1   0.15375 251793.120000
   2811   2814     1   0.15241 261918.400000
   2814   2815     1   0.12183 533627.360000
   2814   2816     1   0.13513 334803.680000
   2819   2822     1   0.15375 251793.120000
   2819   2849     1   0.14316 258236.480000
   2822   2825     1   0.15375 251793.120000
   2825   2828     1   0.14647 272713.120000
   2828   2829     1   0.14647 272713.120000
   2828   2839     1   0.14647 272713.120000
   2829   2832     1   0.15375 251793.120000
   2832   2835     1   0.15241 261918.400000
   2835   2836     1   0.12183 533627.360000
   2835   2837     1   0.13513 334803.680000
   2839   2842     1   0.15375 251793.120000
   2842   2845     1   0.15241 261918.400000
   2845   2846     1   0.12183 533627.360000
   2845   2847     1   0.13513 334803.680000
   2850   2853     1   0.15375 251793.120000
   2850   2880     1   0.14316 258236.480000
   2853   2856     1   0.15375 251793.120000
   2856   2859     1   0.14647 272713.120000
   2859   2860     1   0.14647 272713.120000
   2859   2870     1   0.14647 272713.120000
   2860   2863     1   0.15375 251793.120000
   2863   2866     1   0.15241 261918.400000
   2866   2867     1   0.12183 533627.360000
   2866   2868     1   0.13513 334803.680000
   2870   2873     1   0.15375 251793.120000
   2873   2876     1   0.15241 261918.400000
   2876   2877     1   0.12183 533627.360000
   2876   2878     1   0.13513 334803.680000
   2881   2884     1   0.15375 251793.120000
   2881   2911     1   0.14316 258236.480000
   2884   2887     1   0.15375 251793.120000
   2887   2890     1   0.14647 272713.120000
   2890   2891     1   0.14647 272713.120000
   2890   2901     1   0.14647 272713.120000
   2891   2894     1   0.15375 251793.120000
   2894   2897     1   0.15241 261918.400000
   2897   2898     1   0.12183 533627.360000
   2897   2899     1   0.13513 334803.680000
   2901   2904     1   0.15375 251793.120000
   2904   2907     1   0.15241 261918.400000
   2907   2908     1   0.12183 533627.360000
   2907   2909     1   0.13513 334803.680000
   2912   2915     1   0.15375 251793.120000
   2912   2942     1   0.14316 258236.480000
   2915   2918     1   0.15375 251793.120000
   2918   2921     1   0.14647 272713.120000
   2921   2922     1   0.14647 272713.120000
   2921   2932     1   0.14647 272713.120000
   2922   2925     1   0.15375 251793.120000
   2925   2928     1   0.15241 261918.400000
   2928   2929     1   0.12183 533627.360000
   2928   2930     1   0.13513 334803.680000
   2932   2935     1   0.15375 251793.120000
   2935   2938     1   0.15241 261918.400000
   2938   2939     1   0.12183 533627.360000
   2938   2940     1   0.13513 334803.680000
   2943   2946     1   0.15375 251793.120000
   2943   2973     1   0.14316 258236.480000
   2946   2949     1   0.15375 251793.120000
   2949   2952     1   0.14647 272713.120000
   2952   2953     1   0.14647 272713.120000
   2952   2963     1   0.14647 272713.120000
   2953   2956     1   0.15375 251793.120000
   2956   2959     1   0.15241 261918.400000
   2959   2960     1   0.12183 533627.360000
   2959   2961     1   0.13513 334803.680000
   2963   2966     1   0.15375 251793.120000
   2966   2969     1   0.15241 261918.400000
   2969   2970     1   0.12183 533627.360000
   2969   2971     1   0.13513 334803.680000
   2974   2977     1   0.15375 251793.120000
   2974   3004     1   0.14316 258236.480000
   2977   2980     1   0.15375 251793.120000
   2980   2983     1   0.14647 272713.120000
   2983   2984     1   0.14647 272713.120000
   2983   2994     1   0.14647 272713.120000
   2984   2987     1   0.15375 251793.120000
   2987   2990     1   0.15241 261918.400000
   2990   2991     1   0.12183 533627.360000
   2990   2992     1   0.13513 334803.680000
   2994   2997     1   0.15375 251793.120000
   2997   3000     1   0.15241 261918.400000
   3000   3001     1   0.12183 533627.360000
   3000   3002     1   0.13513 334803.680000
   3005   3008     1   0.15375 251793.120000
   3005   3035     1   0.14316 258236.480000
   3008   3011     1   0.15375 251793.120000
   3011   3014     1   0.14647 272713.120000
   3014   3015     1   0.14647 272713.120000
   3014   3025     1   0.14647 272713.120000
   3015   3018     1   0.15375 251793.120000
   3018   3021     1   0.15241 261918.400000
   3021   3022     1   0.12183 533627.360000
   3021   3023     1   0.13513 334803.680000
   3025   3028     1   0.15375 251793.120000
   3028   3031     1   0.15241 261918.400000
   3031   3032     1   0.12183 533627.360000
   3031   3033     1   0.13513 334803.680000
   3036   3039     1   0.15375 251793.120000
   3036   3066     1   0.14316 258236.480000
   3039   3042     1   0.15375 251793.120000
   3042   3045     1   0.14647 272713.120000
   3045   3046     1   0.14647 272713.120000
   3045   3056     1   0.14647 272713.120000
   3046   3049     1   0.15375 251793.120000
   3049   3052     1   0.15241 261918.400000
   3052   3053     1   0.12183 533627.360000
   3052   3054     1   0.13513 334803.680000
   3056   3059     1   0.15375 251793.120000
   3059   3062     1   0.15241 261918.400000
   3062   3063     1   0.12183 533627.360000
   3062   3064     1   0.13513 334803.680000
   3067   3070     1   0.15375 251793.120000
   3067   3097     1   0.14316 258236.480000
   3070   3073     1   0.15375 251793.120000
   3073   3076     1   0.14647 272713.120000
   3076   3077     1   0.14647 272713.120000
   3076   3087     1   0.14647 272713.120000
   3077   3080     1   0.15375 251793.120000
   3080   3083     1   0.15241 261918.400000
   3083   3084     1   0.12183 533627.360000
   3083   3085     1   0.13513 334803.680000
   3087   3090     1   0.15375 251793.120000
   3090   3093     1   0.15241 261918.400000
   3093   3094     1   0.12183 533627.360000
   3093   3095     1   0.13513 334803.680000
   3098   3101     1   0.15375 251793.120000
   3098   3128     1   0.14316 258236.480000
   3101   3104     1   0.15375 251793.120000
   3104   3107     1   0.14647 272713.120000
   3107   3108     1   0.14647 272713.120000
   3107   3118     1   0.14647 272713.120000
   3108   3111     1   0.15375 251793.120000
   3111   3114     1   0.15241 261918.400000
   3114   3115     1   0.12183 533627.360000
   3114   3116     1   0.13513 334803.680000
   3118   3121     1   0.15375 251793.120000
   3121   3124     1   0.15241 261918.400000
   3124   3125     1   0.12183 533627.360000
   3124   3126     1   0.13513 334803.680000
   3129   3132     1   0.15375 251793.120000
   3129   3159     1   0.14316 258236.480000
   3132   3135     1   0.15375 251793.120000
   3135   3138     1   0.14647 272713.120000
   3138   3139     1   0.14647 272713.120000
   3138   3149     1   0.14647 272713.120000
   3139   3142     1   0.15375 251793.120000
   3142   3145     1   0.15241 261918.400000
   3145   3146     1   0.12183 533627.360000
   3145   3147     1   0.13513 334803.680000
   3149   3152     1   0.15375 251793.120000
   3152   3155     1   0.15241 261918.400000
   3155   3156     1   0.12183 533627.360000
   3155   3157     1   0.13513 334803.680000
   3160   3163     1   0.15375 251793.120000
   3160   3190     1   0.14316 258236.480000
   3163   3166     1   0.15375 251793.120000
   3166   3169     1   0.14647 272713.120000
   3169   3170     1   0.14647 272713.120000
   3169   3180     1   0.14647 272713.120000
   3170   3173     1   0.15375 251793.120000
   3173   3176     1   0.15241 261918.400000
   3176   3177     1   0.12183 533627.360000
   3176   3178     1   0.13513 334803.680000
   3180   3183     1   0.15375 251793.120000
   3183   3186     1   0.15241 261918.400000
   3186   3187     1   0.12183 533627.360000
   3186   3188     1   0.13513 334803.680000
   3191   3194     1   0.15375 251793.120000
   3191   3221     1   0.14316 258236.480000
   3194   3197     1   0.15375 251793.120000
   3197   3200     1   0.14647 272713.120000
   3200   3201     1   0.14647 272713.120000
   3200   3211     1   0.14647 272713.120000
   3201   3204     1   0.15375 251793.120000
   3204   3207     1   0.15241 261918.400000
   3207   3208     1   0.12183 533627.360000
   3207   3209     1   0.13513 334803.680000
   3211   3214     1   0.15375 251793.120000
   3214   3217     1   0.15241 261918.400000
   3217   3218     1   0.12183 533627.360000
   3217   3219     1   0.13513 334803.680000
   3222   3225     1   0.15375 251793.120000
   3222   3252     1   0.14316 258236.480000
   3225   3228     1   0.15375 251793.120000
   3228   3231     1   0.14647 272713.120000
   3231   3232     1   0.14647 272713.120000
   3231   3242     1   0.14647 272713.120000
   3232   3235     1   0.15375 251793.120000
   3235   3238     1   0.15241 261918.400000
   3238   3239     1   0.12183 533627.360000
   3238   3240     1   0.13513 334803.680000
   3242   3245     1   0.15375 251793.120000
   3245   3248     1   0.15241 261918.400000
   3248   3249     1   0.12183 533627.360000
   3248   3250     1   0.13513 334803.680000
   3253   3256     1   0.15375 251793.120000
   3253   3283     1   0.14316 258236.480000
   3256   3259     1   0.15375 251793.120000
   3259   3262     1   0.14647 272713.120000
   3262   3263     1   0.14647 272713.120000
   3262   3273     1   0.14647 272713.120000
   3263   3266     1   0.15375 251793.120000
   3266   3269     1   0.15241 261918.400000
   3269   3270     1   0.12183 533627.360000
   3269   3271     1   0.13513 334803.680000
   3273   3276     1   0.15375 251793.120000
   3276   3279     1   0.15241 261918.400000
   3279   3280     1   0.12183 533627.360000
   3279   3281     1   0.13513 334803.680000
   3284   3287     1   0.15375 251793.120000
   3284   3314     1   0.14316 258236.480000
   3287   3290     1   0.15375 251793.120000
   3290   3293     1   0.14647 272713.120000
   3293   3294     1   0.14647 272713.120000
   3293   3304     1   0.14647 272713.120000
   3294   3297     1   0.15375 251793.120000
   3297   3300     1   0.15241 261918.400000
   3300   3301     1   0.12183 533627.360000
   3300   3302     1   0.13513 334803.680000
   3304   3307     1   0.15375 251793.120000
   3307   3310     1   0.15241 261918.400000
   3310   3311     1   0.12183 533627.360000
   3310   3312     1   0.13513 334803.680000
   3315   3318     1   0.15375 251793.120000
   3315   3345     1   0.14316 258236.480000
   3318   3321     1   0.15375 251793.120000
   3321   3324     1   0.14647 272713.120000
   3324   3325     1   0.14647 272713.120000
   3324   3335     1   0.14647 272713.120000
   3325   3328     1   0.15375 251793.120000
   3328   3331     1   0.15241 261918.400000
   3331   3332     1   0.12183 533627.360000
   3331   3333     1   0.13513 334803.680000
   3335   3338     1   0.15375 251793.120000
   3338   3341     1   0.15241 261918.400000
   3341   3342     1   0.12183 533627.360000
   3341   3343     1   0.13513 334803.680000
   3346   3349     1   0.15375 251793.120000
   3346   3376     1   0.14316 258236.480000
   3349   3352     1   0.15375 251793.120000
   3352   3355     1   0.14647 272713.120000
   3355   3356     1   0.14647 272713.120000
   3355   3366     1   0.14647 272713.120000
   3356   3359     1   0.15375 251793.120000
   3359   3362     1   0.15241 261918.400000
   3362   3363     1   0.12183 533627.360000
   3362   3364     1   0.13513 334803.680000
   3366   3369     1   0.15375 251793.120000
   3369   3372     1   0.15241 261918.400000
   3372   3373     1   0.12183 533627.360000
   3372   3374     1   0.13513 334803.680000
   3377   3380     1   0.15375 251793.120000
   3377   3407     1   0.14316 258236.480000
   3380   3383     1   0.15375 251793.120000
   3383   3386     1   0.14647 272713.120000
   3386   3387     1   0.14647 272713.120000
   3386   3397     1   0.14647 272713.120000
   3387   3390     1   0.15375 251793.120000
   3390   3393     1   0.15241 261918.400000
   3393   3394     1   0.12183 533627.360000
   3393   3395     1   0.13513 334803.680000
   3397   3400     1   0.15375 251793.120000
   3400   3403     1   0.15241 261918.400000
   3403   3404     1   0.12183 533627.360000
   3403   3405     1   0.13513 334803.680000
   3408   3411     1   0.15375 251793.120000
   3408   3438     1   0.14316 258236.480000
   3411   3414     1   0.15375 251793.120000
   3414   3417     1   0.14647 272713.120000
   3417   3418     1   0.14647 272713.120000
   3417   3428     1   0.14647 272713.120000
   3418   3421     1   0.15375 251793.120000
   3421   3424     1   0.15241 261918.400000
   3424   3425     1   0.12183 533627.360000
   3424   3426     1   0.13513 334803.680000
   3428   3431     1   0.15375 251793.120000
   3431   3434     1   0.15241 261918.400000
   3434   3435     1   0.12183 533627.360000
   3434   3436     1   0.13513 334803.680000
   3439   3442     1   0.15375 251793.120000
   3439   3469     1   0.14316 258236.480000
   3442   3445     1   0.15375 251793.120000
   3445   3448     1   0.14647 272713.120000
   3448   3449     1   0.14647 272713.120000
   3448   3459     1   0.14647 272713.120000
   3449   3452     1   0.15375 251793.120000
   3452   3455     1   0.15241 261918.400000
   3455   3456     1   0.12183 533627.360000
   3455   3457     1   0.13513 334803.680000
   3459   3462     1   0.15375 251793.120000
   3462   3465     1   0.15241 261918.400000
   3465   3466     1   0.12183 533627.360000
   3465   3467     1   0.13513 334803.680000
   3470   3473     1   0.15375 251793.120000
   3470   3500     1   0.14316 258236.480000
   3473   3476     1   0.15375 251793.120000
   3476   3479     1   0.14647 272713.120000
   3479   3480     1   0.14647 272713.120000
   3479   3490     1   0.14647 272713.120000
   3480   3483     1   0.15375 251793.120000
   3483   3486     1   0.15241 261918.400000
   3486   3487     1   0.12183 533627.360000
   3486   3488     1   0.13513 334803.680000
   3490   3493     1   0.15375 251793.120000
   3493   3496     1   0.15241 261918.400000
   3496   3497     1   0.12183 533627.360000
   3496   3498     1   0.13513 334803.680000
   3501   3504     1   0.15375 251793.120000
   3501   3531     1   0.14316 258236.480000
   3504   3507     1   0.15375 251793.120000
   3507   3510     1   0.14647 272713.120000
   3510   3511     1   0.14647 272713.120000
   3510   3521     1   0.14647 272713.120000
   3511   3514     1   0.15375 251793.120000
   3514   3517     1   0.15241 261918.400000
   3517   3518     1   0.12183 533627.360000
   3517   3519     1   0.13513 334803.680000
   3521   3524     1   0.15375 251793.120000
   3524   3527     1   0.15241 261918.400000
   3527   3528     1   0.12183 533627.360000
   3527   3529     1   0.13513 334803.680000
   3532   3535     1   0.15375 251793.120000
   3532   3562     1   0.14316 258236.480000
   3535   3538     1   0.15375 251793.120000
   3538   3541     1   0.14647 272713.120000
   3541   3542     1   0.14647 272713.120000
   3541   3552     1   0.14647 272713.120000
   3542   3545     1   0.15375 251793.120000
   3545   3548     1   0.15241 261918.400000
   3548   3549     1   0.12183 533627.360000
   3548   3550     1   0.13513 334803.680000
   3552   3555     1   0.15375 251793.120000
   3555   3558     1   0.15241 261918.400000
   3558   3559     1   0.12183 533627.360000
   3558   3560     1   0.13513 334803.680000
   3563   3566     1   0.15375 251793.120000
   3563   3593     1   0.14316 258236.480000
   3566   3569     1   0.15375 251793.120000
   3569   3572     1   0.14647 272713.120000
   3572   3573     1   0.14647 272713.120000
   3572   3583     1   0.14647 272713.120000
   3573   3576     1   0.15375 251793.120000
   3576   3579     1   0.15241 261918.400000
   3579   3580     1   0.12183 533627.360000
   3579   3581     1   0.13513 334803.680000
   3583   3586     1   0.15375 251793.120000
   3586   3589     1   0.15241 261918.400000
   3589   3590     1   0.12183 533627.360000
   3589   3591     1   0.13513 334803.680000
   3594   3597     1   0.15375 251793.120000
   3594   3624     1   0.14316 258236.480000
   3597   3600     1   0.15375 251793.120000
   3600   3603     1   0.14647 272713.120000
   3603   3604     1   0.14647 272713.120000
   3603   3614     1   0.14647 272713.120000
   3604   3607     1   0.15375 251793.120000
   3607   3610     1   0.15241 261918.400000
   3610   3611     1   0.12183 533627.360000
   3610   3612     1   0.13513 334803.680000
   3614   3617     1   0.15375 251793.120000
   3617   3620     1   0.15241 261918.400000
   3620   3621     1   0.12183 533627.360000
   3620   3622     1   0.13513 334803.680000
   3625   3628     1   0.15375 251793.120000
   3625   3655     1   0.14316 258236.480000
   3628   3631     1   0.15375 251793.120000
   3631   3634     1   0.14647 272713.120000
   3634   3635     1   0.14647 272713.120000
   3634   3645     1   0.14647 272713.120000
   3635   3638     1   0.15375 251793.120000
   3638   3641     1   0.15241 261918.400000
   3641   3642     1   0.12183 533627.360000
   3641   3643     1   0.13513 334803.680000
   3645   3648     1   0.15375 251793.120000
   3648   3651     1   0.15241 261918.400000
   3651   3652     1   0.12183 533627.360000
   3651   3653     1   0.13513 334803.680000
   3656   3659     1   0.15375 251793.120000
   3656   3686     1   0.14316 258236.480000
   3659   3662     1   0.15375 251793.120000
   3662   3665     1   0.14647 272713.120000
   3665   3666     1   0.14647 272713.120000
   3665   3676     1   0.14647 272713.120000
   3666   3669     1   0.15375 251793.120000
   3669   3672     1   0.15241 261918.400000
   3672   3673     1   0.12183 533627.360000
   3672   3674     1   0.13513 334803.680000
   3676   3679     1   0.15375 251793.120000
   3679   3682     1   0.15241 261918.400000
   3682   3683     1   0.12183 533627.360000
   3682   3684     1   0.13513 334803.680000
   3687   3690     1   0.15375 251793.120000
   3687   3717     1   0.14316 258236.480000
   3690   3693     1   0.15375 251793.120000
   3693   3696     1   0.14647 272713.120000
   3696   3697     1   0.14647 272713.120000
   3696   3707     1   0.14647 272713.120000
   3697   3700     1   0.15375 251793.120000
   3700   3703     1   0.15241 261918.400000
   3703   3704     1   0.12183 533627.360000
   3703   3705     1   0.13513 334803.680000
   3707   3710     1   0.15375 251793.120000
   3710   3713     1   0.15241 261918.400000
   3713   3714     1   0.12183 533627.360000
   3713   3715     1   0.13513 334803.680000
   3718   3721     1   0.15375 251793.120000
   3718   3748     1   0.14316 258236.480000
   3721   3724     1   0.15375 251793.120000
   3724   3727     1   0.14647 272713.120000
   3727   3728     1   0.14647 272713.120000
   3727   3738     1   0.14647 272713.120000
   3728   3731     1   0.15375 251793.120000
   3731   3734     1   0.15241 261918.400000
   3734   3735     1   0.12183 533627.360000
   3734   3736     1   0.13513 334803.680000
   3738   3741     1   0.15375 251793.120000
   3741   3744     1   0.15241 261918.400000
   3744   3745     1   0.12183 533627.360000
   3744   3746     1   0.13513 334803.680000
   3749   3752     1   0.15375 251793.120000
   3749   3779     1   0.14316 258236.480000
   3752   3755     1   0.15375 251793.120000
   3755   3758     1   0.14647 272713.120000
   3758   3759     1   0.14647 272713.120000
   3758   3769     1   0.14647 272713.120000
   3759   3762     1   0.15375 251793.120000
   3762   3765     1   0.15241 261918.400000
   3765   3766     1   0.12183 533627.360000
   3765   3767     1   0.13513 334803.680000
   3769   3772     1   0.15375 251793.120000
   3772   3775     1   0.15241 261918.400000
   3775   3776     1   0.12183 533627.360000
   3775   3777     1   0.13513 334803.680000
   3780   3783     1   0.15375 251793.120000
   3780   3810     1   0.14316 258236.480000
   3783   3786     1   0.15375 251793.120000
   3786   3789     1   0.14647 272713.120000
   3789   3790     1   0.14647 272713.120000
   3789   3800     1   0.14647 272713.120000
   3790   3793     1   0.15375 251793.120000
   3793   3796     1   0.15241 261918.400000
   3796   3797     1   0.12183 533627.360000
   3796   3798     1   0.13513 334803.680000
   3800   3803     1   0.15375 251793.120000
   3803   3806     1   0.15241 261918.400000
   3806   3807     1   0.12183 533627.360000
   3806   3808     1   0.13513 334803.680000
   3811   3814     1   0.15375 251793.120000
   3811   3841     1   0.14316 258236.480000
   3814   3817     1   0.15375 251793.120000
   3817   3820     1   0.14647 272713.120000
   3820   3821     1   0.14647 272713.120000
   3820   3831     1   0.14647 272713.120000
   3821   3824     1   0.15375 251793.120000
   3824   3827     1   0.15241 261918.400000
   3827   3828     1   0.12183 533627.360000
   3827   3829     1   0.13513 334803.680000
   3831   3834     1   0.15375 251793.120000
   3834   3837     1   0.15241 261918.400000
   3837   3838     1   0.12183 533627.360000
   3837   3839     1   0.13513 334803.680000
   3842   3845     1   0.15375 251793.120000
   3842   3872     1   0.14316 258236.480000
   3845   3848     1   0.15375 251793.120000
   3848   3851     1   0.14647 272713.120000
   3851   3852     1   0.14647 272713.120000
   3851   3862     1   0.14647 272713.120000
   3852   3855     1   0.15375 251793.120000
   3855   3858     1   0.15241 261918.400000
   3858   3859     1   0.12183 533627.360000
   3858   3860     1   0.13513 334803.680000
   3862   3865     1   0.15375 251793.120000
   3865   3868     1   0.15241 261918.400000
   3868   3869     1   0.12183 533627.360000
   3868   3870     1   0.13513 334803.680000
   3873   3876     1   0.15375 251793.120000
   3873   3903     1   0.14316 258236.480000
   3876   3879     1   0.15375 251793.120000
   3879   3882     1   0.14647 272713.120000
   3882   3883     1   0.14647 272713.120000
   3882   3893     1   0.14647 272713.120000
   3883   3886     1   0.15375 251793.120000
   3886   3889     1   0.15241 261918.400000
   3889   3890     1   0.12183 533627.360000
   3889   3891     1   0.13513 334803.680000
   3893   3896     1   0.15375 251793.120000
   3896   3899     1   0.15241 261918.400000
   3899   3900     1   0.12183 533627.360000
   3899   3901     1   0.13513 334803.680000
   3904   3907     1   0.15375 251793.120000
   3904   3934     1   0.14316 258236.480000
   3907   3910     1   0.15375 251793.120000
   3910   3913     1   0.14647 272713.120000
   3913   3914     1   0.14647 272713.120000
   3913   3924     1   0.14647 272713.120000
   3914   3917     1   0.15375 251793.120000
   3917   3920     1   0.15241 261918.400000
   3920   3921     1   0.12183 533627.360000
   3920   3922     1   0.13513 334803.680000
   3924   3927     1   0.15375 251793.120000
   3927   3930     1   0.15241 261918.400000
   3930   3931     1   0.12183 533627.360000
   3930   3932     1   0.13513 334803.680000
   3935   3938     1   0.15375 251793.120000
   3935   3965     1   0.14316 258236.480000
   3938   3941     1   0.15375 251793.120000
   3941   3944     1   0.14647 272713.120000
   3944   3945     1   0.14647 272713.120000
   3944   3955     1   0.14647 272713.120000
   3945   3948     1   0.15375 251793.120000
   3948   3951     1   0.15241 261918.400000
   3951   3952     1   0.12183 533627.360000
   3951   3953     1   0.13513 334803.680000
   3955   3958     1   0.15375 251793.120000
   3958   3961     1   0.15241 261918.400000
   3961   3962     1   0.12183 533627.360000
   3961   3963     1   0.13513 334803.680000
   3966   3969     1   0.15375 251793.120000
   3966   3996     1   0.14316 258236.480000
   3969   3972     1   0.15375 251793.120000
   3972   3975     1   0.14647 272713.120000
   3975   3976     1   0.14647 272713.120000
   3975   3986     1   0.14647 272713.120000
   3976   3979     1   0.15375 251793.120000
   3979   3982     1   0.15241 261918.400000
   3982   3983     1   0.12183 533627.360000
   3982   3984     1   0.13513 334803.680000
   3986   3989     1   0.15375 251793.120000
   3989   3992     1   0.15241 261918.400000
   3992   3993     1   0.12183 533627.360000
   3992   3994     1   0.13513 334803.680000
   3997   4000     1   0.15375 251793.120000
   3997   4027     1   0.14316 258236.480000
   4000   4003     1   0.15375 251793.120000
   4003   4006     1   0.14647 272713.120000
   4006   4007     1   0.14647 272713.120000
   4006   4017     1   0.14647 272713.120000
   4007   4010     1   0.15375 251793.120000
   4010   4013     1   0.15241 261918.400000
   4013   4014     1   0.12183 533627.360000
   4013   4015     1   0.13513 334803.680000
   4017   4020     1   0.15375 251793.120000
   4020   4023     1   0.15241 261918.400000
   4023   4024     1   0.12183 533627.360000
   4023   4025     1   0.13513 334803.680000
   4028   4031     1   0.15375 251793.120000
   4028   4058     1   0.14316 258236.480000
   4031   4034     1   0.15375 251793.120000
   4034   4037     1   0.14647 272713.120000
   4037   4038     1   0.14647 272713.120000
   4037   4048     1   0.14647 272713.120000
   4038   4041     1   0.15375 251793.120000
   4041   4044     1   0.15241 261918.400000
   4044   4045     1   0.12183 533627.360000
   4044   4046     1   0.13513 334803.680000
   4048   4051     1   0.15375 251793.120000
   4051   4054     1   0.15241 261918.400000
   4054   4055     1   0.12183 533627.360000
   4054   4056     1   0.13513 334803.680000
   4059   4062     1   0.15375 251793.120000
   4059   4089     1   0.14316 258236.480000
   4062   4065     1   0.15375 251793.120000
   4065   4068     1   0.14647 272713.120000
   4068   4069     1   0.14647 272713.120000
   4068   4079     1   0.14647 272713.120000
   4069   4072     1   0.15375 251793.120000
   4072   4075     1   0.15241 261918.400000
   4075   4076     1   0.12183 533627.360000
   4075   4077     1   0.13513 334803.680000
   4079   4082     1   0.15375 251793.120000
   4082   4085     1   0.15241 261918.400000
   4085   4086     1   0.12183 533627.360000
   4085   4087     1   0.13513 334803.680000
   4090   4093     1   0.15375 251793.120000
   4090   4120     1   0.14316 258236.480000
   4093   4096     1   0.15375 251793.120000
   4096   4099     1   0.14647 272713.120000
   4099   4100     1   0.14647 272713.120000
   4099   4110     1   0.14647 272713.120000
   4100   4103     1   0.15375 251793.120000
   4103   4106     1   0.15241 261918.400000
   4106   4107     1   0.12183 533627.360000
   4106   4108     1   0.13513 334803.680000
   4110   4113     1   0.15375 251793.120000
   4113   4116     1   0.15241 261918.400000
   4116   4117     1   0.12183 533627.360000
   4116   4118     1   0.13513 334803.680000
   4121   4124     1   0.15375 251793.120000
   4121   4151     1   0.14316 258236.480000
   4124   4127     1   0.15375 251793.120000
   4127   4130     1   0.14647 272713.120000
   4130   4131     1   0.14647 272713.120000
   4130   4141     1   0.14647 272713.120000
   4131   4134     1   0.15375 251793.120000
   4134   4137     1   0.15241 261918.400000
   4137   4138     1   0.12183 533627.360000
   4137   4139     1   0.13513 334803.680000
   4141   4144     1   0.15375 251793.120000
   4144   4147     1   0.15241 261918.400000
   4147   4148     1   0.12183 533627.360000
   4147   4149     1   0.13513 334803.680000
   4152   4155     1   0.15375 251793.120000
   4152   4182     1   0.14316 258236.480000
   4155   4158     1   0.15375 251793.120000
   4158   4161     1   0.14647 272713.120000
   4161   4162     1   0.14647 272713.120000
   4161   4172     1   0.14647 272713.120000
   4162   4165     1   0.15375 251793.120000
   4165   4168     1   0.15241 261918.400000
   4168   4169     1   0.12183 533627.360000
   4168   4170     1   0.13513 334803.680000
   4172   4175     1   0.15375 251793.120000
   4175   4178     1   0.15241 261918.400000
   4178   4179     1   0.12183 533627.360000
   4178   4180     1   0.13513 334803.680000
   4183   4186     1   0.15375 251793.120000
   4183   4213     1   0.14316 258236.480000
   4186   4189     1   0.15375 251793.120000
   4189   4192     1   0.14647 272713.120000
   4192   4193     1   0.14647 272713.120000
   4192   4203     1   0.14647 272713.120000
   4193   4196     1   0.15375 251793.120000
   4196   4199     1   0.15241 261918.400000
   4199   4200     1   0.12183 533627.360000
   4199   4201     1   0.13513 334803.680000
   4203   4206     1   0.15375 251793.120000
   4206   4209     1   0.15241 261918.400000
   4209   4210     1   0.12183 533627.360000
   4209   4211     1   0.13513 334803.680000
   4214   4217     1   0.15375 251793.120000
   4214   4244     1   0.14316 258236.480000
   4217   4220     1   0.15375 251793.120000
   4220   4223     1   0.14647 272713.120000
   4223   4224     1   0.14647 272713.120000
   4223   4234     1   0.14647 272713.120000
   4224   4227     1   0.15375 251793.120000
   4227   4230     1   0.15241 261918.400000
   4230   4231     1   0.12183 533627.360000
   4230   4232     1   0.13513 334803.680000
   4234   4237     1   0.15375 251793.120000
   4237   4240     1   0.15241 261918.400000
   4240   4241     1   0.12183 533627.360000
   4240   4242     1   0.13513 334803.680000
   4245   4248     1   0.15375 251793.120000
   4245   4275     1   0.14316 258236.480000
   4248   4251     1   0.15375 251793.120000
   4251   4254     1   0.14647 272713.120000
   4254   4255     1   0.14647 272713.120000
   4254   4265     1   0.14647 272713.120000
   4255   4258     1   0.15375 251793.120000
   4258   4261     1   0.15241 261918.400000
   4261   4262     1   0.12183 533627.360000
   4261   4263     1   0.13513 334803.680000
   4265   4268     1   0.15375 251793.120000
   4268   4271     1   0.15241 261918.400000
   4271   4272     1   0.12183 533627.360000
   4271   4273     1   0.13513 334803.680000
   4276   4279     1   0.15375 251793.120000
   4276   4306     1   0.14316 258236.480000
   4279   4282     1   0.15375 251793.120000
   4282   4285     1   0.14647 272713.120000
   4285   4286     1   0.14647 272713.120000
   4285   4296     1   0.14647 272713.120000
   4286   4289     1   0.15375 251793.120000
   4289   4292     1   0.15241 261918.400000
   4292   4293     1   0.12183 533627.360000
   4292   4294     1   0.13513 334803.680000
   4296   4299     1   0.15375 251793.120000
   4299   4302     1   0.15241 261918.400000
   4302   4303     1   0.12183 533627.360000
   4302   4304     1   0.13513 334803.680000
   4307   4310     1   0.15375 251793.120000
   4307   4337     1   0.14316 258236.480000
   4310   4313     1   0.15375 251793.120000
   4313   4316     1   0.14647 272713.120000
   4316   4317     1   0.14647 272713.120000
   4316   4327     1   0.14647 272713.120000
   4317   4320     1   0.15375 251793.120000
   4320   4323     1   0.15241 261918.400000
   4323   4324     1   0.12183 533627.360000
   4323   4325     1   0.13513 334803.680000
   4327   4330     1   0.15375 251793.120000
   4330   4333     1   0.15241 261918.400000
   4333   4334     1   0.12183 533627.360000
   4333   4335     1   0.13513 334803.680000
   4338   4341     1   0.15375 251793.120000
   4338   4368     1   0.14316 258236.480000
   4341   4344     1   0.15375 251793.120000
   4344   4347     1   0.14647 272713.120000
   4347   4348     1   0.14647 272713.120000
   4347   4358     1   0.14647 272713.120000
   4348   4351     1   0.15375 251793.120000
   4351   4354     1   0.15241 261918.400000
   4354   4355     1   0.12183 533627.360000
   4354   4356     1   0.13513 334803.680000
   4358   4361     1   0.15375 251793.120000
   4361   4364     1   0.15241 261918.400000
   4364   4365     1   0.12183 533627.360000
   4364   4366     1   0.13513 334803.680000
   4369   4372     1   0.15375 251793.120000
   4369   4399     1   0.14316 258236.480000
   4372   4375     1   0.15375 251793.120000
   4375   4378     1   0.14647 272713.120000
   4378   4379     1   0.14647 272713.120000
   4378   4389     1   0.14647 272713.120000
   4379   4382     1   0.15375 251793.120000
   4382   4385     1   0.15241 261918.400000
   4385   4386     1   0.12183 533627.360000
   4385   4387     1   0.13513 334803.680000
   4389   4392     1   0.15375 251793.120000
   4392   4395     1   0.15241 261918.400000
   4395   4396     1   0.12183 533627.360000
   4395   4397     1   0.13513 334803.680000
   4400   4403     1   0.15375 251793.120000
   4400   4430     1   0.14316 258236.480000
   4403   4406     1   0.15375 251793.120000
   4406   4409     1   0.14647 272713.120000
   4409   4410     1   0.14647 272713.120000
   4409   4420     1   0.14647 272713.120000
   4410   4413     1   0.15375 251793.120000
   4413   4416     1   0.15241 261918.400000
   4416   4417     1   0.12183 533627.360000
   4416   4418     1   0.13513 334803.680000
   4420   4423     1   0.15375 251793.120000
   4423   4426     1   0.15241 261918.400000
   4426   4427     1   0.12183 533627.360000
   4426   4428     1   0.13513 334803.680000
   4431   4434     1   0.15375 251793.120000
   4431   4461     1   0.14316 258236.480000
   4434   4437     1   0.15375 251793.120000
   4437   4440     1   0.14647 272713.120000
   4440   4441     1   0.14647 272713.120000
   4440   4451     1   0.14647 272713.120000
   4441   4444     1   0.15375 251793.120000
   4444   4447     1   0.15241 261918.400000
   4447   4448     1   0.12183 533627.360000
   4447   4449     1   0.13513 334803.680000
   4451   4454     1   0.15375 251793.120000
   4454   4457     1   0.15241 261918.400000
   4457   4458     1   0.12183 533627.360000
   4457   4459     1   0.13513 334803.680000
   4462   4465     1   0.15375 251793.120000
   4462   4492     1   0.14316 258236.480000
   4465   4468     1   0.15375 251793.120000
   4468   4471     1   0.14647 272713.120000
   4471   4472     1   0.14647 272713.120000
   4471   4482     1   0.14647 272713.120000
   4472   4475     1   0.15375 251793.120000
   4475   4478     1   0.15241 261918.400000
   4478   4479     1   0.12183 533627.360000
   4478   4480     1   0.13513 334803.680000
   4482   4485     1   0.15375 251793.120000
   4485   4488     1   0.15241 261918.400000
   4488   4489     1   0.12183 533627.360000
   4488   4490     1   0.13513 334803.680000
   4493   4496     1   0.15375 251793.120000
   4493   4523     1   0.14316 258236.480000
   4496   4499     1   0.15375 251793.120000
   4499   4502     1   0.14647 272713.120000
   4502   4503     1   0.14647 272713.120000
   4502   4513     1   0.14647 272713.120000
   4503   4506     1   0.15375 251793.120000
   4506   4509     1   0.15241 261918.400000
   4509   4510     1   0.12183 533627.360000
   4509   4511     1   0.13513 334803.680000
   4513   4516     1   0.15375 251793.120000
   4516   4519     1   0.15241 261918.400000
   4519   4520     1   0.12183 533627.360000
   4519   4521     1   0.13513 334803.680000
   4524   4527     1   0.15375 251793.120000
   4524   4554     1   0.14316 258236.480000
   4527   4530     1   0.15375 251793.120000
   4530   4533     1   0.14647 272713.120000
   4533   4534     1   0.14647 272713.120000
   4533   4544     1   0.14647 272713.120000
   4534   4537     1   0.15375 251793.120000
   4537   4540     1   0.15241 261918.400000
   4540   4541     1   0.12183 533627.360000
   4540   4542     1   0.13513 334803.680000
   4544   4547     1   0.15375 251793.120000
   4547   4550     1   0.15241 261918.400000
   4550   4551     1   0.12183 533627.360000
   4550   4552     1   0.13513 334803.680000
   4555   4558     1   0.15375 251793.120000
   4555   4585     1   0.14316 258236.480000
   4558   4561     1   0.15375 251793.120000
   4561   4564     1   0.14647 272713.120000
   4564   4565     1   0.14647 272713.120000
   4564   4575     1   0.14647 272713.120000
   4565   4568     1   0.15375 251793.120000
   4568   4571     1   0.15241 261918.400000
   4571   4572     1   0.12183 533627.360000
   4571   4573     1   0.13513 334803.680000
   4575   4578     1   0.15375 251793.120000
   4578   4581     1   0.15241 261918.400000
   4581   4582     1   0.12183 533627.360000
   4581   4583     1   0.13513 334803.680000
   4586   4589     1   0.15375 251793.120000
   4586   4616     1   0.14316 258236.480000
   4589   4592     1   0.15375 251793.120000
   4592   4595     1   0.14647 272713.120000
   4595   4596     1   0.14647 272713.120000
   4595   4606     1   0.14647 272713.120000
   4596   4599     1   0.15375 251793.120000
   4599   4602     1   0.15241 261918.400000
   4602   4603     1   0.12183 533627.360000
   4602   4604     1   0.13513 334803.680000
   4606   4609     1   0.15375 251793.120000
   4609   4612     1   0.15241 261918.400000
   4612   4613     1   0.12183 533627.360000
   4612   4614     1   0.13513 334803.680000
   4617   4620     1   0.15375 251793.120000
   4617   4647     1   0.14316 258236.480000
   4620   4623     1   0.15375 251793.120000
   4623   4626     1   0.14647 272713.120000
   4626   4627     1   0.14647 272713.120000
   4626   4637     1   0.14647 272713.120000
   4627   4630     1   0.15375 251793.120000
   4630   4633     1   0.15241 261918.400000
   4633   4634     1   0.12183 533627.360000
   4633   4635     1   0.13513 334803.680000
   4637   4640     1   0.15375 251793.120000
   4640   4643     1   0.15241 261918.400000
   4643   4644     1   0.12183 533627.360000
   4643   4645     1   0.13513 334803.680000
   4648   4651     1   0.15375 251793.120000
   4648   4678     1   0.14316 258236.480000
   4651   4654     1   0.15375 251793.120000
   4654   4657     1   0.14647 272713.120000
   4657   4658     1   0.14647 272713.120000
   4657   4668     1   0.14647 272713.120000
   4658   4661     1   0.15375 251793.120000
   4661   4664     1   0.15241 261918.400000
   4664   4665     1   0.12183 533627.360000
   4664   4666     1   0.13513 334803.680000
   4668   4671     1   0.15375 251793.120000
   4671   4674     1   0.15241 261918.400000
   4674   4675     1   0.12183 533627.360000
   4674   4676     1   0.13513 334803.680000
   4679   4682     1   0.15375 251793.120000
   4679   4709     1   0.14316 258236.480000
   4682   4685     1   0.15375 251793.120000
   4685   4688     1   0.14647 272713.120000
   4688   4689     1   0.14647 272713.120000
   4688   4699     1   0.14647 272713.120000
   4689   4692     1   0.15375 251793.120000
   4692   4695     1   0.15241 261918.400000
   4695   4696     1   0.12183 533627.360000
   4695   4697     1   0.13513 334803.680000
   4699   4702     1   0.15375 251793.120000
   4702   4705     1   0.15241 261918.400000
   4705   4706     1   0.12183 533627.360000
   4705   4707     1   0.13513 334803.680000
   4710   4713     1   0.15375 251793.120000
   4710   4740     1   0.14316 258236.480000
   4713   4716     1   0.15375 251793.120000
   4716   4719     1   0.14647 272713.120000
   4719   4720     1   0.14647 272713.120000
   4719   4730     1   0.14647 272713.120000
   4720   4723     1   0.15375 251793.120000
   4723   4726     1   0.15241 261918.400000
   4726   4727     1   0.12183 533627.360000
   4726   4728     1   0.13513 334803.680000
   4730   4733     1   0.15375 251793.120000
   4733   4736     1   0.15241 261918.400000
   4736   4737     1   0.12183 533627.360000
   4736   4738     1   0.13513 334803.680000
   4741   4744     1   0.15375 251793.120000
   4741   4771     1   0.14316 258236.480000
   4744   4747     1   0.15375 251793.120000
   4747   4750     1   0.14647 272713.120000
   4750   4751     1   0.14647 272713.120000
   4750   4761     1   0.14647 272713.120000
   4751   4754     1   0.15375 251793.120000
   4754   4757     1   0.15241 261918.400000
   4757   4758     1   0.12183 533627.360000
   4757   4759     1   0.13513 334803.680000
   4761   4764     1   0.15375 251793.120000
   4764   4767     1   0.15241 261918.400000
   4767   4768     1   0.12183 533627.360000
   4767   4769     1   0.13513 334803.680000
   4772   4775     1   0.15375 251793.120000
   4772   4802     1   0.14316 258236.480000
   4775   4778     1   0.15375 251793.120000
   4778   4781     1   0.14647 272713.120000
   4781   4782     1   0.14647 272713.120000
   4781   4792     1   0.14647 272713.120000
   4782   4785     1   0.15375 251793.120000
   4785   4788     1   0.15241 261918.400000
   4788   4789     1   0.12183 533627.360000
   4788   4790     1   0.13513 334803.680000
   4792   4795     1   0.15375 251793.120000
   4795   4798     1   0.15241 261918.400000
   4798   4799     1   0.12183 533627.360000
   4798   4800     1   0.13513 334803.680000
   4803   4806     1   0.15375 251793.120000
   4803   4833     1   0.14316 258236.480000
   4806   4809     1   0.15375 251793.120000
   4809   4812     1   0.14647 272713.120000
   4812   4813     1   0.14647 272713.120000
   4812   4823     1   0.14647 272713.120000
   4813   4816     1   0.15375 251793.120000
   4816   4819     1   0.15241 261918.400000
   4819   4820     1   0.12183 533627.360000
   4819   4821     1   0.13513 334803.680000
   4823   4826     1   0.15375 251793.120000
   4826   4829     1   0.15241 261918.400000
   4829   4830     1   0.12183 533627.360000
   4829   4831     1   0.13513 334803.680000
   4834   4837     1   0.15375 251793.120000
   4834   4864     1   0.14316 258236.480000
   4837   4840     1   0.15375 251793.120000
   4840   4843     1   0.14647 272713.120000
   4843   4844     1   0.14647 272713.120000
   4843   4854     1   0.14647 272713.120000
   4844   4847     1   0.15375 251793.120000
   4847   4850     1   0.15241 261918.400000
   4850   4851     1   0.12183 533627.360000
   4850   4852     1   0.13513 334803.680000
   4854   4857     1   0.15375 251793.120000
   4857   4860     1   0.15241 261918.400000
   4860   4861     1   0.12183 533627.360000
   4860   4862     1   0.13513 334803.680000
   4865   4868     1   0.15375 251793.120000
   4865   4895     1   0.14316 258236.480000
   4868   4871     1   0.15375 251793.120000
   4871   4874     1   0.14647 272713.120000
   4874   4875     1   0.14647 272713.120000
   4874   4885     1   0.14647 272713.120000
   4875   4878     1   0.15375 251793.120000
   4878   4881     1   0.15241 261918.400000
   4881   4882     1   0.12183 533627.360000
   4881   4883     1   0.13513 334803.680000
   4885   4888     1   0.15375 251793.120000
   4888   4891     1   0.15241 261918.400000
   4891   4892     1   0.12183 533627.360000
   4891   4893     1   0.13513 334803.680000
   4896   4899     1   0.15375 251793.120000
   4896   4926     1   0.14316 258236.480000
   4899   4902     1   0.15375 251793.120000
   4902   4905     1   0.14647 272713.120000
   4905   4906     1   0.14647 272713.120000
   4905   4916     1   0.14647 272713.120000
   4906   4909     1   0.15375 251793.120000
   4909   4912     1   0.15241 261918.400000
   4912   4913     1   0.12183 533627.360000
   4912   4914     1   0.13513 334803.680000
   4916   4919     1   0.15375 251793.120000
   4919   4922     1   0.15241 261918.400000
   4922   4923     1   0.12183 533627.360000
   4922   4924     1   0.13513 334803.680000
   4927   4930     1   0.15375 251793.120000
   4927   4957     1   0.14316 258236.480000
   4930   4933     1   0.15375 251793.120000
   4933   4936     1   0.14647 272713.120000
   4936   4937     1   0.14647 272713.120000
   4936   4947     1   0.14647 272713.120000
   4937   4940     1   0.15375 251793.120000
   4940   4943     1   0.15241 261918.400000
   4943   4944     1   0.12183 533627.360000
   4943   4945     1   0.13513 334803.680000
   4947   4950     1   0.15375 251793.120000
   4950   4953     1   0.15241 261918.400000
   4953   4954     1   0.12183 533627.360000
   4953   4955     1   0.13513 334803.680000
   4958   4961     1   0.15375 251793.120000
   4958   4988     1   0.14316 258236.480000
   4961   4964     1   0.15375 251793.120000
   4964   4967     1   0.14647 272713.120000
   4967   4968     1   0.14647 272713.120000
   4967   4978     1   0.14647 272713.120000
   4968   4971     1   0.15375 251793.120000
   4971   4974     1   0.15241 261918.400000
   4974   4975     1   0.12183 533627.360000
   4974   4976     1   0.13513 334803.680000
   4978   4981     1   0.15375 251793.120000
   4981   4984     1   0.15241 261918.400000
   4984   4985     1   0.12183 533627.360000
   4984   4986     1   0.13513 334803.680000
   4989   4992     1   0.15375 251793.120000
   4989   5019     1   0.14316 258236.480000
   4992   4995     1   0.15375 251793.120000
   4995   4998     1   0.14647 272713.120000
   4998   4999     1   0.14647 272713.120000
   4998   5009     1   0.14647 272713.120000
   4999   5002     1   0.15375 251793.120000
   5002   5005     1   0.15241 261918.400000
   5005   5006     1   0.12183 533627.360000
   5005   5007     1   0.13513 334803.680000
   5009   5012     1   0.15375 251793.120000
   5012   5015     1   0.15241 261918.400000
   5015   5016     1   0.12183 533627.360000
   5015   5017     1   0.13513 334803.680000
   5020   5023     1   0.15375 251793.120000
   5020   5050     1   0.14316 258236.480000
   5023   5026     1   0.15375 251793.120000
   5026   5029     1   0.14647 272713.120000
   5029   5030     1   0.14647 272713.120000
   5029   5040     1   0.14647 272713.120000
   5030   5033     1   0.15375 251793.120000
   5033   5036     1   0.15241 261918.400000
   5036   5037     1   0.12183 533627.360000
   5036   5038     1   0.13513 334803.680000
   5040   5043     1   0.15375 251793.120000
   5043   5046     1   0.15241 261918.400000
   5046   5047     1   0.12183 533627.360000
   5046   5048     1   0.13513 334803.680000
   5051   5054     1   0.15375 251793.120000
   5051   5081     1   0.14316 258236.480000
   5054   5057     1   0.15375 251793.120000
   5057   5060     1   0.14647 272713.120000
   5060   5061     1   0.14647 272713.120000
   5060   5071     1   0.14647 272713.120000
   5061   5064     1   0.15375 251793.120000
   5064   5067     1   0.15241 261918.400000
   5067   5068     1   0.12183 533627.360000
   5067   5069     1   0.13513 334803.680000
   5071   5074     1   0.15375 251793.120000
   5074   5077     1   0.15241 261918.400000
   5077   5078     1   0.12183 533627.360000
   5077   5079     1   0.13513 334803.680000
   5082   5085     1   0.15375 251793.120000
   5082   5112     1   0.14316 258236.480000
   5085   5088     1   0.15375 251793.120000
   5088   5091     1   0.14647 272713.120000
   5091   5092     1   0.14647 272713.120000
   5091   5102     1   0.14647 272713.120000
   5092   5095     1   0.15375 251793.120000
   5095   5098     1   0.15241 261918.400000
   5098   5099     1   0.12183 533627.360000
   5098   5100     1   0.13513 334803.680000
   5102   5105     1   0.15375 251793.120000
   5105   5108     1   0.15241 261918.400000
   5108   5109     1   0.12183 533627.360000
   5108   5110     1   0.13513 334803.680000
   5113   5116     1   0.15375 251793.120000
   5113   5143     1   0.14316 258236.480000
   5116   5119     1   0.15375 251793.120000
   5119   5122     1   0.14647 272713.120000
   5122   5123     1   0.14647 272713.120000
   5122   5133     1   0.14647 272713.120000
   5123   5126     1   0.15375 251793.120000
   5126   5129     1   0.15241 261918.400000
   5129   5130     1   0.12183 533627.360000
   5129   5131     1   0.13513 334803.680000
   5133   5136     1   0.15375 251793.120000
   5136   5139     1   0.15241 261918.400000
   5139   5140     1   0.12183 533627.360000
   5139   5141     1   0.13513 334803.680000
   5144   5147     1   0.15375 251793.120000
   5144   5174     1   0.14316 258236.480000
   5147   5150     1   0.15375 251793.120000
   5150   5153     1   0.14647 272713.120000
   5153   5154     1   0.14647 272713.120000
   5153   5164     1   0.14647 272713.120000
   5154   5157     1   0.15375 251793.120000
   5157   5160     1   0.15241 261918.400000
   5160   5161     1   0.12183 533627.360000
   5160   5162     1   0.13513 334803.680000
   5164   5167     1   0.15375 251793.120000
   5167   5170     1   0.15241 261918.400000
   5170   5171     1   0.12183 533627.360000
   5170   5172     1   0.13513 334803.680000
   5175   5178     1   0.15375 251793.120000
   5175   5205     1   0.14316 258236.480000
   5178   5181     1   0.15375 251793.120000
   5181   5184     1   0.14647 272713.120000
   5184   5185     1   0.14647 272713.120000
   5184   5195     1   0.14647 272713.120000
   5185   5188     1   0.15375 251793.120000
   5188   5191     1   0.15241 261918.400000
   5191   5192     1   0.12183 533627.360000
   5191   5193     1   0.13513 334803.680000
   5195   5198     1   0.15375 251793.120000
   5198   5201     1   0.15241 261918.400000
   5201   5202     1   0.12183 533627.360000
   5201   5203     1   0.13513 334803.680000
   5206   5209     1   0.15375 251793.120000
   5206   5236     1   0.14316 258236.480000
   5209   5212     1   0.15375 251793.120000
   5212   5215     1   0.14647 272713.120000
   5215   5216     1   0.14647 272713.120000
   5215   5226     1   0.14647 272713.120000
   5216   5219     1   0.15375 251793.120000
   5219   5222     1   0.15241 261918.400000
   5222   5223     1   0.12183 533627.360000
   5222   5224     1   0.13513 334803.680000
   5226   5229     1   0.15375 251793.120000
   5229   5232     1   0.15241 261918.400000
   5232   5233     1   0.12183 533627.360000
   5232   5234     1   0.13513 334803.680000
   5237   5240     1   0.15375 251793.120000
   5237   5267     1   0.14316 258236.480000
   5240   5243     1   0.15375 251793.120000
   5243   5246     1   0.14647 272713.120000
   5246   5247     1   0.14647 272713.120000
   5246   5257     1   0.14647 272713.120000
   5247   5250     1   0.15375 251793.120000
   5250   5253     1   0.15241 261918.400000
   5253   5254     1   0.12183 533627.360000
   5253   5255     1   0.13513 334803.680000
   5257   5260     1   0.15375 251793.120000
   5260   5263     1   0.15241 261918.400000
   5263   5264     1   0.12183 533627.360000
   5263   5265     1   0.13513 334803.680000
   5268   5271     1   0.15375 251793.120000
   5268   5298     1   0.14316 258236.480000
   5271   5274     1   0.15375 251793.120000
   5274   5277     1   0.14647 272713.120000
   5277   5278     1   0.14647 272713.120000
   5277   5288     1   0.14647 272713.120000
   5278   5281     1   0.15375 251793.120000
   5281   5284     1   0.15241 261918.400000
   5284   5285     1   0.12183 533627.360000
   5284   5286     1   0.13513 334803.680000
   5288   5291     1   0.15375 251793.120000
   5291   5294     1   0.15241 261918.400000
   5294   5295     1   0.12183 533627.360000
   5294   5296     1   0.13513 334803.680000
   5299   5302     1   0.15375 251793.120000
   5299   5329     1   0.14316 258236.480000
   5302   5305     1   0.15375 251793.120000
   5305   5308     1   0.14647 272713.120000
   5308   5309     1   0.14647 272713.120000
   5308   5319     1   0.14647 272713.120000
   5309   5312     1   0.15375 251793.120000
   5312   5315     1   0.15241 261918.400000
   5315   5316     1   0.12183 533627.360000
   5315   5317     1   0.13513 334803.680000
   5319   5322     1   0.15375 251793.120000
   5322   5325     1   0.15241 261918.400000
   5325   5326     1   0.12183 533627.360000
   5325   5327     1   0.13513 334803.680000
   5330   5333     1   0.15375 251793.120000
   5330   5360     1   0.14316 258236.480000
   5333   5336     1   0.15375 251793.120000
   5336   5339     1   0.14647 272713.120000
   5339   5340     1   0.14647 272713.120000
   5339   5350     1   0.14647 272713.120000
   5340   5343     1   0.15375 251793.120000
   5343   5346     1   0.15241 261918.400000
   5346   5347     1   0.12183 533627.360000
   5346   5348     1   0.13513 334803.680000
   5350   5353     1   0.15375 251793.120000
   5353   5356     1   0.15241 261918.400000
   5356   5357     1   0.12183 533627.360000
   5356   5358     1   0.13513 334803.680000
   5361   5364     1   0.15375 251793.120000
   5361   5391     1   0.14316 258236.480000
   5364   5367     1   0.15375 251793.120000
   5367   5370     1   0.14647 272713.120000
   5370   5371     1   0.14647 272713.120000
   5370   5381     1   0.14647 272713.120000
   5371   5374     1   0.15375 251793.120000
   5374   5377     1   0.15241 261918.400000
   5377   5378     1   0.12183 533627.360000
   5377   5379     1   0.13513 334803.680000
   5381   5384     1   0.15375 251793.120000
   5384   5387     1   0.15241 261918.400000
   5387   5388     1   0.12183 533627.360000
   5387   5389     1   0.13513 334803.680000
   5392   5395     1   0.15375 251793.120000
   5392   5422     1   0.14316 258236.480000
   5395   5398     1   0.15375 251793.120000
   5398   5401     1   0.14647 272713.120000
   5401   5402     1   0.14647 272713.120000
   5401   5412     1   0.14647 272713.120000
   5402   5405     1   0.15375 251793.120000
   5405   5408     1   0.15241 261918.400000
   5408   5409     1   0.12183 533627.360000
   5408   5410     1   0.13513 334803.680000
   5412   5415     1   0.15375 251793.120000
   5415   5418     1   0.15241 261918.400000
   5418   5419     1   0.12183 533627.360000
   5418   5420     1   0.13513 334803.680000
   5423   5426     1   0.15375 251793.120000
   5423   5453     1   0.14316 258236.480000
   5426   5429     1   0.15375 251793.120000
   5429   5432     1   0.14647 272713.120000
   5432   5433     1   0.14647 272713.120000
   5432   5443     1   0.14647 272713.120000
   5433   5436     1   0.15375 251793.120000
   5436   5439     1   0.15241 261918.400000
   5439   5440     1   0.12183 533627.360000
   5439   5441     1   0.13513 334803.680000
   5443   5446     1   0.15375 251793.120000
   5446   5449     1   0.15241 261918.400000
   5449   5450     1   0.12183 533627.360000
   5449   5451     1   0.13513 334803.680000
   5454   5457     1   0.15375 251793.120000
   5454   5484     1   0.14316 258236.480000
   5457   5460     1   0.15375 251793.120000
   5460   5463     1   0.14647 272713.120000
   5463   5464     1   0.14647 272713.120000
   5463   5474     1   0.14647 272713.120000
   5464   5467     1   0.15375 251793.120000
   5467   5470     1   0.15241 261918.400000
   5470   5471     1   0.12183 533627.360000
   5470   5472     1   0.13513 334803.680000
   5474   5477     1   0.15375 251793.120000
   5477   5480     1   0.15241 261918.400000
   5480   5481     1   0.12183 533627.360000
   5480   5482     1   0.13513 334803.680000
   5485   5488     1   0.15375 251793.120000
   5485   5515     1   0.14316 258236.480000
   5488   5491     1   0.15375 251793.120000
   5491   5494     1   0.14647 272713.120000
   5494   5495     1   0.14647 272713.120000
   5494   5505     1   0.14647 272713.120000
   5495   5498     1   0.15375 251793.120000
   5498   5501     1   0.15241 261918.400000
   5501   5502     1   0.12183 533627.360000
   5501   5503     1   0.13513 334803.680000
   5505   5508     1   0.15375 251793.120000
   5508   5511     1   0.15241 261918.400000
   5511   5512     1   0.12183 533627.360000
   5511   5513     1   0.13513 334803.680000
   5516   5519     1   0.15375 251793.120000
   5516   5546     1   0.14316 258236.480000
   5519   5522     1   0.15375 251793.120000
   5522   5525     1   0.14647 272713.120000
   5525   5526     1   0.14647 272713.120000
   5525   5536     1   0.14647 272713.120000
   5526   5529     1   0.15375 251793.120000
   5529   5532     1   0.15241 261918.400000
   5532   5533     1   0.12183 533627.360000
   5532   5534     1   0.13513 334803.680000
   5536   5539     1   0.15375 251793.120000
   5539   5542     1   0.15241 261918.400000
   5542   5543     1   0.12183 533627.360000
   5542   5544     1   0.13513 334803.680000
   5547   5550     1   0.15375 251793.120000
   5547   5577     1   0.14316 258236.480000
   5550   5553     1   0.15375 251793.120000
   5553   5556     1   0.14647 272713.120000
   5556   5557     1   0.14647 272713.120000
   5556   5567     1   0.14647 272713.120000
   5557   5560     1   0.15375 251793.120000
   5560   5563     1   0.15241 261918.400000
   5563   5564     1   0.12183 533627.360000
   5563   5565     1   0.13513 334803.680000
   5567   5570     1   0.15375 251793.120000
   5570   5573     1   0.15241 261918.400000
   5573   5574     1   0.12183 533627.360000
   5573   5575     1   0.13513 334803.680000
   5578   5581     1   0.15375 251793.120000
   5578   5608     1   0.14316 258236.480000
   5581   5584     1   0.15375 251793.120000
   5584   5587     1   0.14647 272713.120000
   5587   5588     1   0.14647 272713.120000
   5587   5598     1   0.14647 272713.120000
   5588   5591     1   0.15375 251793.120000
   5591   5594     1   0.15241 261918.400000
   5594   5595     1   0.12183 533627.360000
   5594   5596     1   0.13513 334803.680000
   5598   5601     1   0.15375 251793.120000
   5601   5604     1   0.15241 261918.400000
   5604   5605     1   0.12183 533627.360000
   5604   5606     1   0.13513 334803.680000
   5609   5612     1   0.15375 251793.120000
   5609   5639     1   0.14316 258236.480000
   5612   5615     1   0.15375 251793.120000
   5615   5618     1   0.14647 272713.120000
   5618   5619     1   0.14647 272713.120000
   5618   5629     1   0.14647 272713.120000
   5619   5622     1   0.15375 251793.120000
   5622   5625     1   0.15241 261918.400000
   5625   5626     1   0.12183 533627.360000
   5625   5627     1   0.13513 334803.680000
   5629   5632     1   0.15375 251793.120000
   5632   5635     1   0.15241 261918.400000
   5635   5636     1   0.12183 533627.360000
   5635   5637     1   0.13513 334803.680000
   5640   5643     1   0.15375 251793.120000
   5640   5670     1   0.14316 258236.480000
   5643   5646     1   0.15375 251793.120000
   5646   5649     1   0.14647 272713.120000
   5649   5650     1   0.14647 272713.120000
   5649   5660     1   0.14647 272713.120000
   5650   5653     1   0.15375 251793.120000
   5653   5656     1   0.15241 261918.400000
   5656   5657     1   0.12183 533627.360000
   5656   5658     1   0.13513 334803.680000
   5660   5663     1   0.15375 251793.120000
   5663   5666     1   0.15241 261918.400000
   5666   5667     1   0.12183 533627.360000
   5666   5668     1   0.13513 334803.680000
   5671   5674     1   0.15375 251793.120000
   5671   5701     1   0.14316 258236.480000
   5674   5677     1   0.15375 251793.120000
   5677   5680     1   0.14647 272713.120000
   5680   5681     1   0.14647 272713.120000
   5680   5691     1   0.14647 272713.120000
   5681   5684     1   0.15375 251793.120000
   5684   5687     1   0.15241 261918.400000
   5687   5688     1   0.12183 533627.360000
   5687   5689     1   0.13513 334803.680000
   5691   5694     1   0.15375 251793.120000
   5694   5697     1   0.15241 261918.400000
   5697   5698     1   0.12183 533627.360000
   5697   5699     1   0.13513 334803.680000
      2      3     1   0.10969 276646.080000
      2      4     1   0.10969 276646.080000
      5      6     1   0.10969 276646.080000
      5      7     1   0.10969 276646.080000
      8      9     1   0.10969 276646.080000
      8     10     1   0.10969 276646.080000
     11     12     1   0.10969 276646.080000
     11     13     1   0.10969 276646.080000
     14     15     1   0.10969 276646.080000
     14     16     1   0.10969 276646.080000
     17     18     1   0.10969 276646.080000
     17     19     1   0.10969 276646.080000
     20     21     1   0.10969 276646.080000
     20     22     1   0.10969 276646.080000
     23     24     1   0.10969 276646.080000
     23     25     1   0.10969 276646.080000
     26     27     1   0.10969 276646.080000
     26     28     1   0.10969 276646.080000
     30     31     1   0.10969 276646.080000
     30     32     1   0.10969 276646.080000
     33     34     1   0.10969 276646.080000
     33     35     1   0.10969 276646.080000
     36     37     1   0.10969 276646.080000
     36     38     1   0.10969 276646.080000
     39     40     1   0.10969 276646.080000
     39     41     1   0.10969 276646.080000
     42     43     1   0.10969 276646.080000
     42     44     1   0.10969 276646.080000
     45     46     1   0.10969 276646.080000
     45     47     1   0.10969 276646.080000
     48     49     1   0.10969 276646.080000
     48     50     1   0.10969 276646.080000
     51     52     1   0.10969 276646.080000
     51     53     1   0.10969 276646.080000
     54     55     1   0.10969 276646.080000
     54     56     1   0.10969 276646.080000
     59     60     1   0.10969 276646.080000
     59     61     1   0.10969 276646.080000
     62     63     1   0.10969 276646.080000
     62     64     1   0.10969 276646.080000
     65     66     1   0.10969 276646.080000
     65     67     1   0.10969 276646.080000
     68     69     1   0.10969 276646.080000
     68     70     1   0.10969 276646.080000
     71     72     1   0.10969 276646.080000
     71     73     1   0.10969 276646.080000
     74     75     1   0.10969 276646.080000
     74     76     1   0.10969 276646.080000
     77     78     1   0.10969 276646.080000
     77     79     1   0.10969 276646.080000
     80     81     1   0.10969 276646.080000
     80     82     1   0.10969 276646.080000
     83     84     1   0.10969 276646.080000
     83     85     1   0.10969 276646.080000
     88     89     1   0.10969 276646.080000
     88     90     1   0.10969 276646.080000
     91     92     1   0.10969 276646.080000
     91     93     1   0.10969 276646.080000
     94     95     1   0.10969 276646.080000
     94     96     1   0.10969 276646.080000
     97     98     1   0.10969 276646.080000
     97     99     1   0.10969 276646.080000
    100    101     1   0.10969 276646.080000
    100    102     1   0.10969 276646.080000
    103    104     1   0.10969 276646.080000
    103    105     1   0.10969 276646.080000
    106    107     1   0.10969 276646.080000
    106    108     1   0.10969 276646.080000
    109    110     1   0.10969 276646.080000
    109    111     1   0.10969 276646.080000
    112    113     1   0.10969 276646.080000
    112    114     1   0.10969 276646.080000
    117    118     1   0.10969 276646.080000
    117    119     1   0.10969 276646.080000
    120    121     1   0.10969 276646.080000
    120    122     1   0.10969 276646.080000
    123    124     1   0.10969 276646.080000
    123    125     1   0.10969 276646.080000
    126    127     1   0.10969 276646.080000
    126    128     1   0.10969 276646.080000
    129    130     1   0.10969 276646.080000
    129    131     1   0.10969 276646.080000
    132    133     1   0.10969 276646.080000
    132    134     1   0.10969 276646.080000
    135    136     1   0.10969 276646.080000
    135    137     1   0.10969 276646.080000
    138    139     1   0.10969 276646.080000
    138    140     1   0.10969 276646.080000
    141    142     1   0.10969 276646.080000
    141    143     1   0.10969 276646.080000
    146    147     1   0.10969 276646.080000
    146    148     1   0.10969 276646.080000
    149    150     1   0.10969 276646.080000
    149    151     1   0.10969 276646.080000
    152    153     1   0.10969 276646.080000
    152    154     1   0.10969 276646.080000
    155    156     1   0.10969 276646.080000
    155    157     1   0.10969 276646.080000
    158    159     1   0.10969 276646.080000
    158    160     1   0.10969 276646.080000
    161    162     1   0.10969 276646.080000
    161    163     1   0.10969 276646.080000
    164    165     1   0.10969 276646.080000
    164    166     1   0.10969 276646.080000
    167    168     1   0.10969 276646.080000
    167    169     1   0.10969 276646.080000
    170    171     1   0.10969 276646.080000
    170    172     1   0.10969 276646.080000
    175    176     1   0.10969 276646.080000
    175    177     1   0.10969 276646.080000
    178    179     1   0.10969 276646.080000
    178    180     1   0.10969 276646.080000
    181    182     1   0.10969 276646.080000
    181    183     1   0.10969 276646.080000
    184    185     1   0.10969 276646.080000
    184    186     1   0.10969 276646.080000
    187    188     1   0.10969 276646.080000
    187    189     1   0.10969 276646.080000
    190    191     1   0.10969 276646.080000
    190    192     1   0.10969 276646.080000
    193    194     1   0.10969 276646.080000
    193    195     1   0.10969 276646.080000
    196    197     1   0.10969 276646.080000
    196    198     1   0.10969 276646.080000
    199    200     1   0.10969 276646.080000
    199    201     1   0.10969 276646.080000
    204    205     1   0.10969 276646.080000
    204    206     1   0.10969 276646.080000
    207    208     1   0.10969 276646.080000
    207    209     1   0.10969 276646.080000
    210    211     1   0.10969 276646.080000
    210    212     1   0.10969 276646.080000
    213    214     1   0.10969 276646.080000
    213    215     1   0.10969 276646.080000
    216    217     1   0.10969 276646.080000
    216    218     1   0.10969 276646.080000
    219    220     1   0.10969 276646.080000
    219    221     1   0.10969 276646.080000
    222    223     1   0.10969 276646.080000
    222    224     1   0.10969 276646.080000
    225    226     1   0.10969 276646.080000
    225    227     1   0.10969 276646.080000
    228    229     1   0.10969 276646.080000
    228    230     1   0.10969 276646.080000
    233    234     1   0.10969 276646.080000
    233    235     1   0.10969 276646.080000
    236    237     1   0.10969 276646.080000
    236    238     1   0.10969 276646.080000
    239    240     1   0.10969 276646.080000
    239    241     1   0.10969 276646.080000
    242    243     1   0.10969 276646.080000
    242    244     1   0.10969 276646.080000
    245    246     1   0.10969 276646.080000
    245    247     1   0.10969 276646.080000
    248    249     1   0.10969 276646.080000
    248    250     1   0.10969 276646.080000
    251    252     1   0.10969 276646.080000
    251    253     1   0.10969 276646.080000
    254    255     1   0.10969 276646.080000
    254    256     1   0.10969 276646.080000
    257    258     1   0.10969 276646.080000
    257    259     1   0.10969 276646.080000
    262    263     1   0.10969 276646.080000
    262    264     1   0.10969 276646.080000
    265    266     1   0.10969 276646.080000
    265    267     1   0.10969 276646.080000
    268    269     1   0.10969 276646.080000
    268    270     1   0.10969 276646.080000
    271    272     1   0.10969 276646.080000
    271    273     1   0.10969 276646.080000
    274    275     1   0.10969 276646.080000
    274    276     1   0.10969 276646.080000
    277    278     1   0.10969 276646.080000
    277    279     1   0.10969 276646.080000
    280    281     1   0.10969 276646.080000
    280    282     1   0.10969 276646.080000
    283    284     1   0.10969 276646.080000
    283    285     1   0.10969 276646.080000
    286    287     1   0.10969 276646.080000
    286    288     1   0.10969 276646.080000
    291    292     1   0.10969 276646.080000
    291    293     1   0.10969 276646.080000
    294    295     1   0.10969 276646.080000
    294    296     1   0.10969 276646.080000
    297    298     1   0.10969 276646.080000
    297    299     1   0.10969 276646.080000
    300    301     1   0.10969 276646.080000
    300    302     1   0.10969 276646.080000
    303    304     1   0.10969 276646.080000
    303    305     1   0.10969 276646.080000
    306    307     1   0.10969 276646.080000
    306    308     1   0.10969 276646.080000
    309    310     1   0.10969 276646.080000
    309    311     1   0.10969 276646.080000
    312    313     1   0.10969 276646.080000
    312    314     1   0.10969 276646.080000
    315    316     1   0.10969 276646.080000
    315    317     1   0.10969 276646.080000
    320    321     1   0.10969 276646.080000
    320    322     1   0.10969 276646.080000
    323    324     1   0.10969 276646.080000
    323    325     1   0.10969 276646.080000
    326    327     1   0.10969 276646.080000
    326    328     1   0.10969 276646.080000
    329    330     1   0.10969 276646.080000
    329    331     1   0.10969 276646.080000
    332    333     1   0.10969 276646.080000
    332    334     1   0.10969 276646.080000
    335    336     1   0.10969 276646.080000
    335    337     1   0.10969 276646.080000
    338    339     1   0.10969 276646.080000
    338    340     1   0.10969 276646.080000
    341    342     1   0.10969 276646.080000
    341    343     1   0.10969 276646.080000
    344    345     1   0.10969 276646.080000
    344    346     1   0.10969 276646.080000
    349    350     1   0.10969 276646.080000
    349    351     1   0.10969 276646.080000
    352    353     1   0.10969 276646.080000
    352    354     1   0.10969 276646.080000
    355    356     1   0.10969 276646.080000
    355    357     1   0.10969 276646.080000
    358    359     1   0.10969 276646.080000
    358    360     1   0.10969 276646.080000
    361    362     1   0.10969 276646.080000
    361    363     1   0.10969 276646.080000
    364    365     1   0.10969 276646.080000
    364    366     1   0.10969 276646.080000
    367    368     1   0.10969 276646.080000
    367    369     1   0.10969 276646.080000
    370    371     1   0.10969 276646.080000
    370    372     1   0.10969 276646.080000
    373    374     1   0.10969 276646.080000
    373    375     1   0.10969 276646.080000
    378    379     1   0.10969 276646.080000
    378    380     1   0.10969 276646.080000
    381    382     1   0.10969 276646.080000
    381    383     1   0.10969 276646.080000
    384    385     1   0.10969 276646.080000
    384    386     1   0.10969 276646.080000
    387    388     1   0.10969 276646.080000
    387    389     1   0.10969 276646.080000
    390    391     1   0.10969 276646.080000
    390    392     1   0.10969 276646.080000
    393    394     1   0.10969 276646.080000
    393    395     1   0.10969 276646.080000
    396    397     1   0.10969 276646.080000
    396    398     1   0.10969 276646.080000
    399    400     1   0.10969 276646.080000
    399    401     1   0.10969 276646.080000
    402    403     1   0.10969 276646.080000
    402    404     1   0.10969 276646.080000
    407    408     1   0.10969 276646.080000
    407    409     1   0.10969 276646.080000
    410    411     1   0.10969 276646.080000
    410    412     1   0.10969 276646.080000
    413    414     1   0.10969 276646.080000
    413    415     1   0.10969 276646.080000
    416    417     1   0.10969 276646.080000
    416    418     1   0.10969 276646.080000
    419    420     1   0.10969 276646.080000
    419    421     1   0.10969 276646.080000
    422    423     1   0.10969 276646.080000
    422    424     1   0.10969 276646.080000
    425    426     1   0.10969 276646.080000
    425    427     1   0.10969 276646.080000
    428    429     1   0.10969 276646.080000
    428    430     1   0.10969 276646.080000
    431    432     1   0.10969 276646.080000
    431    433     1   0.10969 276646.080000
    436    437     1   0.10969 276646.080000
    436    438     1   0.10969 276646.080000
    439    440     1   0.10969 276646.080000
    439    441     1   0.10969 276646.080000
    442    443     1   0.10969 276646.080000
    442    444     1   0.10969 276646.080000
    445    446     1   0.10969 276646.080000
    445    447     1   0.10969 276646.080000
    448    449     1   0.10969 276646.080000
    448    450     1   0.10969 276646.080000
    451    452     1   0.10969 276646.080000
    451    453     1   0.10969 276646.080000
    454    455     1   0.10969 276646.080000
    454    456     1   0.10969 276646.080000
    457    458     1   0.10969 276646.080000
    457    459     1   0.10969 276646.080000
    460    461     1   0.10969 276646.080000
    460    462     1   0.10969 276646.080000
    465    466     1   0.10969 276646.080000
    465    467     1   0.10969 276646.080000
    468    469     1   0.10969 276646.080000
    468    470     1   0.10969 276646.080000
    471    472     1   0.10969 276646.080000
    471    473     1   0.10969 276646.080000
    474    475     1   0.10969 276646.080000
    474    476     1   0.10969 276646.080000
    477    478     1   0.10969 276646.080000
    477    479     1   0.10969 276646.080000
    480    481     1   0.10969 276646.080000
    480    482     1   0.10969 276646.080000
    483    484     1   0.10969 276646.080000
    483    485     1   0.10969 276646.080000
    486    487     1   0.10969 276646.080000
    486    488     1   0.10969 276646.080000
    489    490     1   0.10969 276646.080000
    489    491     1   0.10969 276646.080000
    494    495     1   0.10969 276646.080000
    494    496     1   0.10969 276646.080000
    497    498     1   0.10969 276646.080000
    497    499     1   0.10969 276646.080000
    500    501     1   0.10969 276646.080000
    500    502     1   0.10969 276646.080000
    503    504     1   0.10969 276646.080000
    503    505     1   0.10969 276646.080000
    506    507     1   0.10969 276646.080000
    506    508     1   0.10969 276646.080000
    509    510     1   0.10969 276646.080000
    509    511     1   0.10969 276646.080000
    512    513     1   0.10969 276646.080000
    512    514     1   0.10969 276646.080000
    515    516     1   0.10969 276646.080000
    515    517     1   0.10969 276646.080000
    518    519     1   0.10969 276646.080000
    518    520     1   0.10969 276646.080000
    523    524     1   0.10969 276646.080000
    523    525     1   0.10969 276646.080000
    526    527     1   0.10969 276646.080000
    526    528     1   0.10969 276646.080000
    529    530     1   0.10969 276646.080000
    529    531     1   0.10969 276646.080000
    532    533     1   0.10969 276646.080000
    532    534     1   0.10969 276646.080000
    535    536     1   0.10969 276646.080000
    535    537     1   0.10969 276646.080000
    538    539     1   0.10969 276646.080000
    538    540     1   0.10969 276646.080000
    541    542     1   0.10969 276646.080000
    541    543     1   0.10969 276646.080000
    544    545     1   0.10969 276646.080000
    544    546     1   0.10969 276646.080000
    547    548     1   0.10969 276646.080000
    547    549     1   0.10969 276646.080000
    552    553     1   0.10969 276646.080000
    552    554     1   0.10969 276646.080000
    555    556     1   0.10969 276646.080000
    555    557     1   0.10969 276646.080000
    558    559     1   0.10969 276646.080000
    558    560     1   0.10969 276646.080000
    561    562     1   0.10969 276646.080000
    561    563     1   0.10969 276646.080000
    564    565     1   0.10969 276646.080000
    564    566     1   0.10969 276646.080000
    567    568     1   0.10969 276646.080000
    567    569     1   0.10969 276646.080000
    570    571     1   0.10969 276646.080000
    570    572     1   0.10969 276646.080000
    573    574     1   0.10969 276646.080000
    573    575     1   0.10969 276646.080000
    576    577     1   0.10969 276646.080000
    576    578     1   0.10969 276646.080000
    581    582     1   0.10969 276646.080000
    581    583     1   0.10969 276646.080000
    584    585     1   0.10969 276646.080000
    584    586     1   0.10969 276646.080000
    587    588     1   0.10969 276646.080000
    587    589     1   0.10969 276646.080000
    590    591     1   0.10969 276646.080000
    590    592     1   0.10969 276646.080000
    593    594     1   0.10969 276646.080000
    593    595     1   0.10969 276646.080000
    596    597     1   0.10969 276646.080000
    596    598     1   0.10969 276646.080000
    599    600     1   0.10969 276646.080000
    599    601     1   0.10969 276646.080000
    602    603     1   0.10969 276646.080000
    602    604     1   0.10969 276646.080000
    605    606     1   0.10969 276646.080000
    605    607     1   0.10969 276646.080000
    610    611     1   0.10969 276646.080000
    610    612     1   0.10969 276646.080000
    613    614     1   0.10969 276646.080000
    613    615     1   0.10969 276646.080000
    616    617     1   0.10969 276646.080000
    616    618     1   0.10969 276646.080000
    619    620     1   0.10969 276646.080000
    619    621     1   0.10969 276646.080000
    622    623     1   0.10969 276646.080000
    622    624     1   0.10969 276646.080000
    625    626     1   0.10969 276646.080000
    625    627     1   0.10969 276646.080000
    628    629     1   0.10969 276646.080000
    628    630     1   0.10969 276646.080000
    631    632     1   0.10969 276646.080000
    631    633     1   0.10969 276646.080000
    634    635     1   0.10969 276646.080000
    634    636     1   0.10969 276646.080000
    639    640     1   0.10969 276646.080000
    639    641     1   0.10969 276646.080000
    642    643     1   0.10969 276646.080000
    642    644     1   0.10969 276646.080000
    645    646     1   0.10969 276646.080000
    645    647     1   0.10969 276646.080000
    648    649     1   0.10969 276646.080000
    648    650     1   0.10969 276646.080000
    651    652     1   0.10969 276646.080000
    651    653     1   0.10969 276646.080000
    654    655     1   0.10969 276646.080000
    654    656     1   0.10969 276646.080000
    657    658     1   0.10969 276646.080000
    657    659     1   0.10969 276646.080000
    660    661     1   0.10969 276646.080000
    660    662     1   0.10969 276646.080000
    663    664     1   0.10969 276646.080000
    663    665     1   0.10969 276646.080000
    668    669     1   0.10969 276646.080000
    668    670     1   0.10969 276646.080000
    671    672     1   0.10969 276646.080000
    671    673     1   0.10969 276646.080000
    674    675     1   0.10969 276646.080000
    674    676     1   0.10969 276646.080000
    677    678     1   0.10969 276646.080000
    677    679     1   0.10969 276646.080000
    680    681     1   0.10969 276646.080000
    680    682     1   0.10969 276646.080000
    683    684     1   0.10969 276646.080000
    683    685     1   0.10969 276646.080000
    686    687     1   0.10969 276646.080000
    686    688     1   0.10969 276646.080000
    689    690     1   0.10969 276646.080000
    689    691     1   0.10969 276646.080000
    692    693     1   0.10969 276646.080000
    692    694     1   0.10969 276646.080000
    697    698     1   0.10969 276646.080000
    697    699     1   0.10969 276646.080000
    700    701     1   0.10969 276646.080000
    700    702     1   0.10969 276646.080000
    703    704     1   0.10969 276646.080000
    703    705     1   0.10969 276646.080000
    706    707     1   0.10969 276646.080000
    706    708     1   0.10969 276646.080000
    709    710     1   0.10969 276646.080000
    709    711     1   0.10969 276646.080000
    712    713     1   0.10969 276646.080000
    712    714     1   0.10969 276646.080000
    715    716     1   0.10969 276646.080000
    715    717     1   0.10969 276646.080000
    718    719     1   0.10969 276646.080000
    718    720     1   0.10969 276646.080000
    721    722     1   0.10969 276646.080000
    721    723     1   0.10969 276646.080000
    726    727     1   0.10969 276646.080000
    726    728     1   0.10969 276646.080000
    729    730     1   0.10969 276646.080000
    729    731     1   0.10969 276646.080000
    732    733     1   0.10969 276646.080000
    732    734     1   0.10969 276646.080000
    735    736     1   0.10969 276646.080000
    735    737     1   0.10969 276646.080000
    738    739     1   0.10969 276646.080000
    738    740     1   0.10969 276646.080000
    741    742     1   0.10969 276646.080000
    741    743     1   0.10969 276646.080000
    744    745     1   0.10969 276646.080000
    744    746     1   0.10969 276646.080000
    747    748     1   0.10969 276646.080000
    747    749     1   0.10969 276646.080000
    750    751     1   0.10969 276646.080000
    750    752     1   0.10969 276646.080000
    755    756     1   0.10969 276646.080000
    755    757     1   0.10969 276646.080000
    758    759     1   0.10969 276646.080000
    758    760     1   0.10969 276646.080000
    761    762     1   0.10969 276646.080000
    761    763     1   0.10969 276646.080000
    764    765     1   0.10969 276646.080000
    764    766     1   0.10969 276646.080000
    767    768     1   0.10969 276646.080000
    767    769     1   0.10969 276646.080000
    770    771     1   0.10969 276646.080000
    770    772     1   0.10969 276646.080000
    773    774     1   0.10969 276646.080000
    773    775     1   0.10969 276646.080000
    776    777     1   0.10969 276646.080000
    776    778     1   0.10969 276646.080000
    779    780     1   0.10969 276646.080000
    779    781     1   0.10969 276646.080000
    784    785     1   0.10969 276646.080000
    784    786     1   0.10969 276646.080000
    787    788     1   0.10969 276646.080000
    787    789     1   0.10969 276646.080000
    790    791     1   0.10969 276646.080000
    790    792     1   0.10969 276646.080000
    793    794     1   0.10969 276646.080000
    793    795     1   0.10969 276646.080000
    796    797     1   0.10969 276646.080000
    796    798     1   0.10969 276646.080000
    799    800     1   0.10969 276646.080000
    799    801     1   0.10969 276646.080000
    802    803     1   0.10969 276646.080000
    802    804     1   0.10969 276646.080000
    805    806     1   0.10969 276646.080000
    805    807     1   0.10969 276646.080000
    808    809     1   0.10969 276646.080000
    808    810     1   0.10969 276646.080000
    813    814     1   0.10969 276646.080000
    813    815     1   0.10969 276646.080000
    816    817     1   0.10969 276646.080000
    816    818     1   0.10969 276646.080000
    819    820     1   0.10969 276646.080000
    819    821     1   0.10969 276646.080000
    822    823     1   0.10969 276646.080000
    822    824     1   0.10969 276646.080000
    825    826     1   0.10969 276646.080000
    825    827     1   0.10969 276646.080000
    828    829     1   0.10969 276646.080000
    828    830     1   0.10969 276646.080000
    831    832     1   0.10969 276646.080000
    831    833     1   0.10969 276646.080000
    834    835     1   0.10969 276646.080000
    834    836     1   0.10969 276646.080000
    837    838     1   0.10969 276646.080000
    837    839     1   0.10969 276646.080000
    842    843     1   0.10969 276646.080000
    842    844     1   0.10969 276646.080000
    845    846     1   0.10969 276646.080000
    845    847     1   0.10969 276646.080000
    848    849     1   0.10969 276646.080000
    848    850     1   0.10969 276646.080000
    851    852     1   0.10969 276646.080000
    851    853     1   0.10969 276646.080000
    854    855     1   0.10969 276646.080000
    854    856     1   0.10969 276646.080000
    857    858     1   0.10969 276646.080000
    857    859     1   0.10969 276646.080000
    860    861     1   0.10969 276646.080000
    860    862     1   0.10969 276646.080000
    863    864     1   0.10969 276646.080000
    863    865     1   0.10969 276646.080000
    866    867     1   0.10969 276646.080000
    866    868     1   0.10969 276646.080000
    871    872     1   0.10969 276646.080000
    871    873     1   0.10969 276646.080000
    874    875     1   0.10969 276646.080000
    874    876     1   0.10969 276646.080000
    877    878     1   0.10969 276646.080000
    877    879     1   0.10969 276646.080000
    880    881     1   0.10969 276646.080000
    880    882     1   0.10969 276646.080000
    883    884     1   0.10969 276646.080000
    883    885     1   0.10969 276646.080000
    886    887     1   0.10969 276646.080000
    886    888     1   0.10969 276646.080000
    889    890     1   0.10969 276646.080000
    889    891     1   0.10969 276646.080000
    892    893     1   0.10969 276646.080000
    892    894     1   0.10969 276646.080000
    895    896     1   0.10969 276646.080000
    895    897     1   0.10969 276646.080000
    900    901     1   0.10969 276646.080000
    900    902     1   0.10969 276646.080000
    903    904     1   0.10969 276646.080000
    903    905     1   0.10969 276646.080000
    906    907     1   0.10969 276646.080000
    906    908     1   0.10969 276646.080000
    909    910     1   0.10969 276646.080000
    909    911     1   0.10969 276646.080000
    912    913     1   0.10969 276646.080000
    912    914     1   0.10969 276646.080000
    915    916     1   0.10969 276646.080000
    915    917     1   0.10969 276646.080000
    918    919     1   0.10969 276646.080000
    918    920     1   0.10969 276646.080000
    921    922     1   0.10969 276646.080000
    921    923     1   0.10969 276646.080000
    924    925     1   0.10969 276646.080000
    924    926     1   0.10969 276646.080000
    929    930     1   0.10969 276646.080000
    929    931     1   0.10969 276646.080000
    932    933     1   0.10969 276646.080000
    932    934     1   0.10969 276646.080000
    935    936     1   0.10969 276646.080000
    935    937     1   0.10969 276646.080000
    938    939     1   0.10969 276646.080000
    938    940     1   0.10969 276646.080000
    941    942     1   0.10969 276646.080000
    941    943     1   0.10969 276646.080000
    944    945     1   0.10969 276646.080000
    944    946     1   0.10969 276646.080000
    947    948     1   0.10969 276646.080000
    947    949     1   0.10969 276646.080000
    950    951     1   0.10969 276646.080000
    950    952     1   0.10969 276646.080000
    953    954     1   0.10969 276646.080000
    953    955     1   0.10969 276646.080000
    958    959     1   0.10969 276646.080000
    958    960     1   0.10969 276646.080000
    961    962     1   0.10969 276646.080000
    961    963     1   0.10969 276646.080000
    964    965     1   0.10969 276646.080000
    964    966     1   0.10969 276646.080000
    967    968     1   0.10969 276646.080000
    967    969     1   0.10969 276646.080000
    970    971     1   0.10969 276646.080000
    970    972     1   0.10969 276646.080000
    973    974     1   0.10969 276646.080000
    973    975     1   0.10969 276646.080000
    976    977     1   0.10969 276646.080000
    976    978     1   0.10969 276646.080000
    979    980     1   0.10969 276646.080000
    979    981     1   0.10969 276646.080000
    982    983     1   0.10969 276646.080000
    982    984     1   0.10969 276646.080000
    987    988     1   0.10969 276646.080000
    987    989     1   0.10969 276646.080000
    990    991     1   0.10969 276646.080000
    990    992     1   0.10969 276646.080000
    993    994     1   0.10969 276646.080000
    993    995     1   0.10969 276646.080000
    996    997     1   0.10969 276646.080000
    996    998     1   0.10969 276646.080000
    999   1000     1   0.10969 276646.080000
    999   1001     1   0.10969 276646.080000
   1002   1003     1   0.10969 276646.080000
   1002   1004     1   0.10969 276646.080000
   1005   1006     1   0.10969 276646.080000
   1005   1007     1   0.10969 276646.080000
   1008   1009     1   0.10969 276646.080000
   1008   1010     1   0.10969 276646.080000
   1011   1012     1   0.10969 276646.080000
   1011   1013     1   0.10969 276646.080000
   1016   1017     1   0.10969 276646.080000
   1016   1018     1   0.10969 276646.080000
   1019   1020     1   0.10969 276646.080000
   1019   1021     1   0.10969 276646.080000
   1022   1023     1   0.10969 276646.080000
   1022   1024     1   0.10969 276646.080000
   1025   1026     1   0.10969 276646.080000
   1025   1027     1   0.10969 276646.080000
   1028   1029     1   0.10969 276646.080000
   1028   1030     1   0.10969 276646.080000
   1031   1032     1   0.10969 276646.080000
   1031   1033     1   0.10969 276646.080000
   1034   1035     1   0.10969 276646.080000
   1034   1036     1   0.10969 276646.080000
   1037   1038     1   0.10969 276646.080000
   1037   1039     1   0.10969 276646.080000
   1040   1041     1   0.10969 276646.080000
   1040   1042     1   0.10969 276646.080000
   1045   1046     1   0.10969 276646.080000
   1045   1047     1   0.10969 276646.080000
   1048   1049     1   0.10969 276646.080000
   1048   1050     1   0.10969 276646.080000
   1051   1052     1   0.10969 276646.080000
   1051   1053     1   0.10969 276646.080000
   1054   1055     1   0.10969 276646.080000
   1054   1056     1   0.10969 276646.080000
   1057   1058     1   0.10969 276646.080000
   1057   1059     1   0.10969 276646.080000
   1060   1061     1   0.10969 276646.080000
   1060   1062     1   0.10969 276646.080000
   1063   1064     1   0.10969 276646.080000
   1063   1065     1   0.10969 276646.080000
   1066   1067     1   0.10969 276646.080000
   1066   1068     1   0.10969 276646.080000
   1069   1070     1   0.10969 276646.080000
   1069   1071     1   0.10969 276646.080000
   1074   1075     1   0.10969 276646.080000
   1074   1076     1   0.10969 276646.080000
   1077   1078     1   0.10969 276646.080000
   1077   1079     1   0.10969 276646.080000
   1080   1081     1   0.10969 276646.080000
   1080   1082     1   0.10969 276646.080000
   1083   1084     1   0.10969 276646.080000
   1083   1085     1   0.10969 276646.080000
   1086   1087     1   0.10969 276646.080000
   1086   1088     1   0.10969 276646.080000
   1089   1090     1   0.10969 276646.080000
   1089   1091     1   0.10969 276646.080000
   1092   1093     1   0.10969 276646.080000
   1092   1094     1   0.10969 276646.080000
   1095   1096     1   0.10969 276646.080000
   1095   1097     1   0.10969 276646.080000
   1098   1099     1   0.10969 276646.080000
   1098   1100     1   0.10969 276646.080000
   1103   1104     1   0.10969 276646.080000
   1103   1105     1   0.10969 276646.080000
   1106   1107     1   0.10969 276646.080000
   1106   1108     1   0.10969 276646.080000
   1109   1110     1   0.10969 276646.080000
   1109   1111     1   0.10969 276646.080000
   1112   1113     1   0.10969 276646.080000
   1112   1114     1   0.10969 276646.080000
   1115   1116     1   0.10969 276646.080000
   1115   1117     1   0.10969 276646.080000
   1118   1119     1   0.10969 276646.080000
   1118   1120     1   0.10969 276646.080000
   1121   1122     1   0.10969 276646.080000
   1121   1123     1   0.10969 276646.080000
   1124   1125     1   0.10969 276646.080000
   1124   1126     1   0.10969 276646.080000
   1127   1128     1   0.10969 276646.080000
   1127   1129     1   0.10969 276646.080000
   1132   1133     1   0.10969 276646.080000
   1132   1134     1   0.10969 276646.080000
   1135   1136     1   0.10969 276646.080000
   1135   1137     1   0.10969 276646.080000
   1138   1139     1   0.10969 276646.080000
   1138   1140     1   0.10969 276646.080000
   1141   1142     1   0.10969 276646.080000
   1141   1143     1   0.10969 276646.080000
   1144   1145     1   0.10969 276646.080000
   1144   1146     1   0.10969 276646.080000
   1147   1148     1   0.10969 276646.080000
   1147   1149     1   0.10969 276646.080000
   1150   1151     1   0.10969 276646.080000
   1150   1152     1   0.10969 276646.080000
   1153   1154     1   0.10969 276646.080000
   1153   1155     1   0.10969 276646.080000
   1156   1157     1   0.10969 276646.080000
   1156   1158     1   0.10969 276646.080000
   1161   1162     1   0.10969 276646.080000
   1161   1163     1   0.10969 276646.080000
   1164   1165     1   0.10969 276646.080000
   1164   1166     1   0.10969 276646.080000
   1167   1168     1   0.10969 276646.080000
   1167   1169     1   0.10969 276646.080000
   1170   1171     1   0.10969 276646.080000
   1170   1172     1   0.10969 276646.080000
   1173   1174     1   0.10969 276646.080000
   1173   1175     1   0.10969 276646.080000
   1176   1177     1   0.10969 276646.080000
   1176   1178     1   0.10969 276646.080000
   1179   1180     1   0.10969 276646.080000
   1179   1181     1   0.10969 276646.080000
   1182   1183     1   0.10969 276646.080000
   1182   1184     1   0.10969 276646.080000
   1185   1186     1   0.10969 276646.080000
   1185   1187     1   0.10969 276646.080000
   1190   1191     1   0.10969 276646.080000
   1190   1192     1   0.10969 276646.080000
   1193   1194     1   0.10969 276646.080000
   1193   1195     1   0.10969 276646.080000
   1196   1197     1   0.10969 276646.080000
   1196   1198     1   0.10969 276646.080000
   1199   1200     1   0.10969 276646.080000
   1199   1201     1   0.10969 276646.080000
   1202   1203     1   0.10969 276646.080000
   1202   1204     1   0.10969 276646.080000
   1205   1206     1   0.10969 276646.080000
   1205   1207     1   0.10969 276646.080000
   1208   1209     1   0.10969 276646.080000
   1208   1210     1   0.10969 276646.080000
   1211   1212     1   0.10969 276646.080000
   1211   1213     1   0.10969 276646.080000
   1214   1215     1   0.10969 276646.080000
   1214   1216     1   0.10969 276646.080000
   1219   1220     1   0.10969 276646.080000
   1219   1221     1   0.10969 276646.080000
   1222   1223     1   0.10969 276646.080000
   1222   1224     1   0.10969 276646.080000
   1225   1226     1   0.10969 276646.080000
   1225   1227     1   0.10969 276646.080000
   1228   1229     1   0.10969 276646.080000
   1228   1230     1   0.10969 276646.080000
   1231   1232     1   0.10969 276646.080000
   1231   1233     1   0.10969 276646.080000
   1234   1235     1   0.10969 276646.080000
   1234   1236     1   0.10969 276646.080000
   1237   1238     1   0.10969 276646.080000
   1237   1239     1   0.10969 276646.080000
   1240   1241     1   0.10969 276646.080000
   1240   1242     1   0.10969 276646.080000
   1243   1244     1   0.10969 276646.080000
   1243   1245     1   0.10969 276646.080000
   1248   1249     1   0.10969 276646.080000
   1248   1250     1   0.10969 276646.080000
   1251   1252     1   0.10969 276646.080000
   1251   1253     1   0.10969 276646.080000
   1254   1255     1   0.10969 276646.080000
   1254   1256     1   0.10969 276646.080000
   1257   1258     1   0.10969 276646.080000
   1257   1259     1   0.10969 276646.080000
   1260   1261     1   0.10969 276646.080000
   1260   1262     1   0.10969 276646.080000
   1263   1264     1   0.10969 276646.080000
   1263   1265     1   0.10969 276646.080000
   1266   1267     1   0.10969 276646.080000
   1266   1268     1   0.10969 276646.080000
   1269   1270     1   0.10969 276646.080000
   1269   1271     1   0.10969 276646.080000
   1272   1273     1   0.10969 276646.080000
   1272   1274     1   0.10969 276646.080000
   1277   1278     1   0.10969 276646.080000
   1277   1279     1   0.10969 276646.080000
   1280   1281     1   0.10969 276646.080000
   1280   1282     1   0.10969 276646.080000
   1283   1284     1   0.10969 276646.080000
   1283   1285     1   0.10969 276646.080000
   1286   1287     1   0.10969 276646.080000
   1286   1288     1   0.10969 276646.080000
   1289   1290     1   0.10969 276646.080000
   1289   1291     1   0.10969 276646.080000
   1292   1293     1   0.10969 276646.080000
   1292   1294     1   0.10969 276646.080000
   1295   1296     1   0.10969 276646.080000
   1295   1297     1   0.10969 276646.080000
   1298   1299     1   0.10969 276646.080000
   1298   1300     1   0.10969 276646.080000
   1301   1302     1   0.10969 276646.080000
   1301   1303     1   0.10969 276646.080000
   1306   1307     1   0.10969 276646.080000
   1306   1308     1   0.10969 276646.080000
   1309   1310     1   0.10969 276646.080000
   1309   1311     1   0.10969 276646.080000
   1312   1313     1   0.10969 276646.080000
   1312   1314     1   0.10969 276646.080000
   1315   1316     1   0.10969 276646.080000
   1315   1317     1   0.10969 276646.080000
   1318   1319     1   0.10969 276646.080000
   1318   1320     1   0.10969 276646.080000
   1321   1322     1   0.10969 276646.080000
   1321   1323     1   0.10969 276646.080000
   1324   1325     1   0.10969 276646.080000
   1324   1326     1   0.10969 276646.080000
   1327   1328     1   0.10969 276646.080000
   1327   1329     1   0.10969 276646.080000
   1330   1331     1   0.10969 276646.080000
   1330   1332     1   0.10969 276646.080000
   1335   1336     1   0.10969 276646.080000
   1335   1337     1   0.10969 276646.080000
   1338   1339     1   0.10969 276646.080000
   1338   1340     1   0.10969 276646.080000
   1341   1342     1   0.10969 276646.080000
   1341   1343     1   0.10969 276646.080000
   1344   1345     1   0.10969 276646.080000
   1344   1346     1   0.10969 276646.080000
   1347   1348     1   0.10969 276646.080000
   1347   1349     1   0.10969 276646.080000
   1350   1351     1   0.10969 276646.080000
   1350   1352     1   0.10969 276646.080000
   1353   1354     1   0.10969 276646.080000
   1353   1355     1   0.10969 276646.080000
   1356   1357     1   0.10969 276646.080000
   1356   1358     1   0.10969 276646.080000
   1359   1360     1   0.10969 276646.080000
   1359   1361     1   0.10969 276646.080000
   1364   1365     1   0.10969 276646.080000
   1364   1366     1   0.10969 276646.080000
   1367   1368     1   0.10969 276646.080000
   1367   1369     1   0.10969 276646.080000
   1370   1371     1   0.10969 276646.080000
   1370   1372     1   0.10969 276646.080000
   1373   1374     1   0.10969 276646.080000
   1373   1375     1   0.10969 276646.080000
   1376   1377     1   0.10969 276646.080000
   1376   1378     1   0.10969 276646.080000
   1379   1380     1   0.10969 276646.080000
   1379   1381     1   0.10969 276646.080000
   1382   1383     1   0.10969 276646.080000
   1382   1384     1   0.10969 276646.080000
   1385   1386     1   0.10969 276646.080000
   1385   1387     1   0.10969 276646.080000
   1388   1389     1   0.10969 276646.080000
   1388   1390     1   0.10969 276646.080000
   1393   1394     1   0.10969 276646.080000
   1393   1395     1   0.10969 276646.080000
   1396   1397     1   0.10969 276646.080000
   1396   1398     1   0.10969 276646.080000
   1399   1400     1   0.10969 276646.080000
   1399   1401     1   0.10969 276646.080000
   1402   1403     1   0.10969 276646.080000
   1402   1404     1   0.10969 276646.080000
   1405   1406     1   0.10969 276646.080000
   1405   1407     1   0.10969 276646.080000
   1408   1409     1   0.10969 276646.080000
   1408   1410     1   0.10969 276646.080000
   1411   1412     1   0.10969 276646.080000
   1411   1413     1   0.10969 276646.080000
   1414   1415     1   0.10969 276646.080000
   1414   1416     1   0.10969 276646.080000
   1417   1418     1   0.10969 276646.080000
   1417   1419     1   0.10969 276646.080000
   1422   1423     1   0.10969 276646.080000
   1422   1424     1   0.10969 276646.080000
   1425   1426     1   0.10969 276646.080000
   1425   1427     1   0.10969 276646.080000
   1428   1429     1   0.10969 276646.080000
   1428   1430     1   0.10969 276646.080000
   1431   1432     1   0.10969 276646.080000
   1431   1433     1   0.10969 276646.080000
   1434   1435     1   0.10969 276646.080000
   1434   1436     1   0.10969 276646.080000
   1437   1438     1   0.10969 276646.080000
   1437   1439     1   0.10969 276646.080000
   1440   1441     1   0.10969 276646.080000
   1440   1442     1   0.10969 276646.080000
   1443   1444     1   0.10969 276646.080000
   1443   1445     1   0.10969 276646.080000
   1446   1447     1   0.10969 276646.080000
   1446   1448     1   0.10969 276646.080000
   1451   1452     1   0.10969 276646.080000
   1451   1453     1   0.10969 276646.080000
   1454   1455     1   0.10969 276646.080000
   1454   1456     1   0.10969 276646.080000
   1457   1458     1   0.10969 276646.080000
   1457   1459     1   0.10969 276646.080000
   1460   1461     1   0.10969 276646.080000
   1460   1462     1   0.10969 276646.080000
   1463   1464     1   0.10969 276646.080000
   1463   1465     1   0.10969 276646.080000
   1466   1467     1   0.10969 276646.080000
   1466   1468     1   0.10969 276646.080000
   1469   1470     1   0.10969 276646.080000
   1469   1471     1   0.10969 276646.080000
   1472   1473     1   0.10969 276646.080000
   1472   1474     1   0.10969 276646.080000
   1475   1476     1   0.10969 276646.080000
   1475   1477     1   0.10969 276646.080000
   1480   1481     1   0.10969 276646.080000
   1480   1482     1   0.10969 276646.080000
   1483   1484     1   0.10969 276646.080000
   1483   1485     1   0.10969 276646.080000
   1486   1487     1   0.10969 276646.080000
   1486   1488     1   0.10969 276646.080000
   1489   1490     1   0.10969 276646.080000
   1489   1491     1   0.10969 276646.080000
   1492   1493     1   0.10969 276646.080000
   1492   1494     1   0.10969 276646.080000
   1495   1496     1   0.10969 276646.080000
   1495   1497     1   0.10969 276646.080000
   1498   1499     1   0.10969 276646.080000
   1498   1500     1   0.10969 276646.080000
   1501   1502     1   0.10969 276646.080000
   1501   1503     1   0.10969 276646.080000
   1504   1505     1   0.10969 276646.080000
   1504   1506     1   0.10969 276646.080000
   1509   1510     1   0.10969 276646.080000
   1509   1511     1   0.10969 276646.080000
   1512   1513     1   0.10969 276646.080000
   1512   1514     1   0.10969 276646.080000
   1515   1516     1   0.10969 276646.080000
   1515   1517     1   0.10969 276646.080000
   1518   1519     1   0.10969 276646.080000
   1518   1520     1   0.10969 276646.080000
   1521   1522     1   0.10969 276646.080000
   1521   1523     1   0.10969 276646.080000
   1524   1525     1   0.10969 276646.080000
   1524   1526     1   0.10969 276646.080000
   1527   1528     1   0.10969 276646.080000
   1527   1529     1   0.10969 276646.080000
   1530   1531     1   0.10969 276646.080000
   1530   1532     1   0.10969 276646.080000
   1533   1534     1   0.10969 276646.080000
   1533   1535     1   0.10969 276646.080000
   1538   1539     1   0.10969 276646.080000
   1538   1540     1   0.10969 276646.080000
   1541   1542     1   0.10969 276646.080000
   1541   1543     1   0.10969 276646.080000
   1544   1545     1   0.10969 276646.080000
   1544   1546     1   0.10969 276646.080000
   1547   1548     1   0.10969 276646.080000
   1547   1549     1   0.10969 276646.080000
   1550   1551     1   0.10969 276646.080000
   1550   1552     1   0.10969 276646.080000
   1553   1554     1   0.10969 276646.080000
   1553   1555     1   0.10969 276646.080000
   1556   1557     1   0.10969 276646.080000
   1556   1558     1   0.10969 276646.080000
   1559   1560     1   0.10969 276646.080000
   1559   1561     1   0.10969 276646.080000
   1562   1563     1   0.10969 276646.080000
   1562   1564     1   0.10969 276646.080000
   1567   1568     1   0.10969 276646.080000
   1567   1569     1   0.10969 276646.080000
   1570   1571     1   0.10969 276646.080000
   1570   1572     1   0.10969 276646.080000
   1573   1574     1   0.10969 276646.080000
   1573   1575     1   0.10969 276646.080000
   1576   1577     1   0.10969 276646.080000
   1576   1578     1   0.10969 276646.080000
   1579   1580     1   0.10969 276646.080000
   1579   1581     1   0.10969 276646.080000
   1582   1583     1   0.10969 276646.080000
   1582   1584     1   0.10969 276646.080000
   1585   1586     1   0.10969 276646.080000
   1585   1587     1   0.10969 276646.080000
   1588   1589     1   0.10969 276646.080000
   1588   1590     1   0.10969 276646.080000
   1591   1592     1   0.10969 276646.080000
   1591   1593     1   0.10969 276646.080000
   1596   1597     1   0.10969 276646.080000
   1596   1598     1   0.10969 276646.080000
   1599   1600     1   0.10969 276646.080000
   1599   1601     1   0.10969 276646.080000
   1602   1603     1   0.10969 276646.080000
   1602   1604     1   0.10969 276646.080000
   1605   1606     1   0.10969 276646.080000
   1605   1607     1   0.10969 276646.080000
   1608   1609     1   0.10969 276646.080000
   1608   1610     1   0.10969 276646.080000
   1611   1612     1   0.10969 276646.080000
   1611   1613     1   0.10969 276646.080000
   1614   1615     1   0.10969 276646.080000
   1614   1616     1   0.10969 276646.080000
   1617   1618     1   0.10969 276646.080000
   1617   1619     1   0.10969 276646.080000
   1620   1621     1   0.10969 276646.080000
   1620   1622     1   0.10969 276646.080000
   1625   1626     1   0.10969 276646.080000
   1625   1627     1   0.10969 276646.080000
   1628   1629     1   0.10969 276646.080000
   1628   1630     1   0.10969 276646.080000
   1631   1632     1   0.10969 276646.080000
   1631   1633     1   0.10969 276646.080000
   1634   1635     1   0.10969 276646.080000
   1634   1636     1   0.10969 276646.080000
   1637   1638     1   0.10969 276646.080000
   1637   1639     1   0.10969 276646.080000
   1640   1641     1   0.10969 276646.080000
   1640   1642     1   0.10969 276646.080000
   1643   1644     1   0.10969 276646.080000
   1643   1645     1   0.10969 276646.080000
   1646   1647     1   0.10969 276646.080000
   1646   1648     1   0.10969 276646.080000
   1649   1650     1   0.10969 276646.080000
   1649   1651     1   0.10969 276646.080000
   1654   1655     1   0.10969 276646.080000
   1654   1656     1   0.10969 276646.080000
   1657   1658     1   0.10969 276646.080000
   1657   1659     1   0.10969 276646.080000
   1660   1661     1   0.10969 276646.080000
   1660   1662     1   0.10969 276646.080000
   1663   1664     1   0.10969 276646.080000
   1663   1665     1   0.10969 276646.080000
   1666   1667     1   0.10969 276646.080000
   1666   1668     1   0.10969 276646.080000
   1669   1670     1   0.10969 276646.080000
   1669   1671     1   0.10969 276646.080000
   1672   1673     1   0.10969 276646.080000
   1672   1674     1   0.10969 276646.080000
   1675   1676     1   0.10969 276646.080000
   1675   1677     1   0.10969 276646.080000
   1678   1679     1   0.10969 276646.080000
   1678   1680     1   0.10969 276646.080000
   1683   1684     1   0.10969 276646.080000
   1683   1685     1   0.10969 276646.080000
   1686   1687     1   0.10969 276646.080000
   1686   1688     1   0.10969 276646.080000
   1689   1690     1   0.10969 276646.080000
   1689   1691     1   0.10969 276646.080000
   1692   1693     1   0.10969 276646.080000
   1692   1694     1   0.10969 276646.080000
   1695   1696     1   0.10969 276646.080000
   1695   1697     1   0.10969 276646.080000
   1698   1699     1   0.10969 276646.080000
   1698   1700     1   0.10969 276646.080000
   1701   1702     1   0.10969 276646.080000
   1701   1703     1   0.10969 276646.080000
   1704   1705     1   0.10969 276646.080000
   1704   1706     1   0.10969 276646.080000
   1707   1708     1   0.10969 276646.080000
   1707   1709     1   0.10969 276646.080000
   1712   1713     1   0.10969 276646.080000
   1712   1714     1   0.10969 276646.080000
   1715   1716     1   0.10969 276646.080000
   1715   1717     1   0.10969 276646.080000
   1718   1719     1   0.10969 276646.080000
   1718   1720     1   0.10969 276646.080000
   1721   1722     1   0.10969 276646.080000
   1721   1723     1   0.10969 276646.080000
   1724   1725     1   0.10969 276646.080000
   1724   1726     1   0.10969 276646.080000
   1727   1728     1   0.10969 276646.080000
   1727   1729     1   0.10969 276646.080000
   1730   1731     1   0.10969 276646.080000
   1730   1732     1   0.10969 276646.080000
   1733   1734     1   0.10969 276646.080000
   1733   1735     1   0.10969 276646.080000
   1736   1737     1   0.10969 276646.080000
   1736   1738     1   0.10969 276646.080000
   1741   1742     1   0.10969 276646.080000
   1741   1743     1   0.10969 276646.080000
   1744   1745     1   0.10969 276646.080000
   1744   1746     1   0.10969 276646.080000
   1747   1748     1   0.10969 276646.080000
   1747   1749     1   0.10969 276646.080000
   1750   1751     1   0.10969 276646.080000
   1750   1752     1   0.10969 276646.080000
   1753   1754     1   0.10969 276646.080000
   1753   1755     1   0.10969 276646.080000
   1756   1757     1   0.10969 276646.080000
   1756   1758     1   0.10969 276646.080000
   1759   1760     1   0.10969 276646.080000
   1759   1761     1   0.10969 276646.080000
   1762   1763     1   0.10969 276646.080000
   1762   1764     1   0.10969 276646.080000
   1765   1766     1   0.10969 276646.080000
   1765   1767     1   0.10969 276646.080000
   1770   1771     1   0.10969 276646.080000
   1770   1772     1   0.10969 276646.080000
   1773   1774     1   0.10969 276646.080000
   1773   1775     1   0.10969 276646.080000
   1776   1777     1   0.10969 276646.080000
   1776   1778     1   0.10969 276646.080000
   1779   1780     1   0.10969 276646.080000
   1779   1781     1   0.10969 276646.080000
   1782   1783     1   0.10969 276646.080000
   1782   1784     1   0.10969 276646.080000
   1785   1786     1   0.10969 276646.080000
   1785   1787     1   0.10969 276646.080000
   1788   1789     1   0.10969 276646.080000
   1788   1790     1   0.10969 276646.080000
   1791   1792     1   0.10969 276646.080000
   1791   1793     1   0.10969 276646.080000
   1794   1795     1   0.10969 276646.080000
   1794   1796     1   0.10969 276646.080000
   1799   1800     1   0.10969 276646.080000
   1799   1801     1   0.10969 276646.080000
   1802   1803     1   0.10969 276646.080000
   1802   1804     1   0.10969 276646.080000
   1805   1806     1   0.10969 276646.080000
   1805   1807     1   0.10969 276646.080000
   1808   1809     1   0.10969 276646.080000
   1808   1810     1   0.10969 276646.080000
   1811   1812     1   0.10969 276646.080000
   1811   1813     1   0.10969 276646.080000
   1814   1815     1   0.10969 276646.080000
   1814   1816     1   0.10969 276646.080000
   1817   1818     1   0.10969 276646.080000
   1817   1819     1   0.10969 276646.080000
   1820   1821     1   0.10969 276646.080000
   1820   1822     1   0.10969 276646.080000
   1823   1824     1   0.10969 276646.080000
   1823   1825     1   0.10969 276646.080000
   1828   1829     1   0.10969 276646.080000
   1828   1830     1   0.10969 276646.080000
   1831   1832     1   0.10969 276646.080000
   1831   1833     1   0.10969 276646.080000
   1834   1835     1   0.10969 276646.080000
   1834   1836     1   0.10969 276646.080000
   1837   1838     1   0.10969 276646.080000
   1837   1839     1   0.10969 276646.080000
   1840   1841     1   0.10969 276646.080000
   1840   1842     1   0.10969 276646.080000
   1843   1844     1   0.10969 276646.080000
   1843   1845     1   0.10969 276646.080000
   1846   1847     1   0.10969 276646.080000
   1846   1848     1   0.10969 276646.080000
   1849   1850     1   0.10969 276646.080000
   1849   1851     1   0.10969 276646.080000
   1852   1853     1   0.10969 276646.080000
   1852   1854     1   0.10969 276646.080000
   1857   1858     1   0.10969 276646.080000
   1857   1859     1   0.10969 276646.080000
   1860   1861     1   0.10969 276646.080000
   1860   1862     1   0.10969 276646.080000
   1863   1864     1   0.10969 276646.080000
   1863   1865     1   0.10969 276646.080000
   1866   1867     1   0.10969 276646.080000
   1866   1868     1   0.10969 276646.080000
   1869   1870     1   0.10969 276646.080000
   1869   1871     1   0.10969 276646.080000
   1872   1873     1   0.10969 276646.080000
   1872   1874     1   0.10969 276646.080000
   1875   1876     1   0.10969 276646.080000
   1875   1877     1   0.10969 276646.080000
   1878   1879     1   0.10969 276646.080000
   1878   1880     1   0.10969 276646.080000
   1881   1882     1   0.10969 276646.080000
   1881   1883     1   0.10969 276646.080000
   1886   1887     1   0.10969 276646.080000
   1886   1888     1   0.10969 276646.080000
   1889   1890     1   0.10969 276646.080000
   1889   1891     1   0.10969 276646.080000
   1892   1893     1   0.10969 276646.080000
   1892   1894     1   0.10969 276646.080000
   1895   1896     1   0.10969 276646.080000
   1895   1897     1   0.10969 276646.080000
   1898   1899     1   0.10969 276646.080000
   1898   1900     1   0.10969 276646.080000
   1901   1902     1   0.10969 276646.080000
   1901   1903     1   0.10969 276646.080000
   1904   1905     1   0.10969 276646.080000
   1904   1906     1   0.10969 276646.080000
   1907   1908     1   0.10969 276646.080000
   1907   1909     1   0.10969 276646.080000
   1910   1911     1   0.10969 276646.080000
   1910   1912     1   0.10969 276646.080000
   1915   1916     1   0.10969 276646.080000
   1915   1917     1   0.10969 276646.080000
   1918   1919     1   0.10969 276646.080000
   1918   1920     1   0.10969 276646.080000
   1921   1922     1   0.10969 276646.080000
   1921   1923     1   0.10969 276646.080000
   1924   1925     1   0.10969 276646.080000
   1924   1926     1   0.10969 276646.080000
   1927   1928     1   0.10969 276646.080000
   1927   1929     1   0.10969 276646.080000
   1930   1931     1   0.10969 276646.080000
   1930   1932     1   0.10969 276646.080000
   1933   1934     1   0.10969 276646.080000
   1933   1935     1   0.10969 276646.080000
   1936   1937     1   0.10969 276646.080000
   1936   1938     1   0.10969 276646.080000
   1939   1940     1   0.10969 276646.080000
   1939   1941     1   0.10969 276646.080000
   1944   1945     1   0.10969 276646.080000
   1944   1946     1   0.10969 276646.080000
   1947   1948     1   0.10969 276646.080000
   1947   1949     1   0.10969 276646.080000
   1950   1951     1   0.10969 276646.080000
   1950   1952     1   0.10969 276646.080000
   1953   1954     1   0.10969 276646.080000
   1953   1955     1   0.10969 276646.080000
   1956   1957     1   0.10969 276646.080000
   1956   1958     1   0.10969 276646.080000
   1959   1960     1   0.10969 276646.080000
   1959   1961     1   0.10969 276646.080000
   1962   1963     1   0.10969 276646.080000
   1962   1964     1   0.10969 276646.080000
   1965   1966     1   0.10969 276646.080000
   1965   1967     1   0.10969 276646.080000
   1968   1969     1   0.10969 276646.080000
   1968   1970     1   0.10969 276646.080000
   1973   1974     1   0.10969 276646.080000
   1973   1975     1   0.10969 276646.080000
   1976   1977     1   0.10969 276646.080000
   1976   1978     1   0.10969 276646.080000
   1979   1980     1   0.10969 276646.080000
   1979   1981     1   0.10969 276646.080000
   1982   1983     1   0.10969 276646.080000
   1982   1984     1   0.10969 276646.080000
   1985   1986     1   0.10969 276646.080000
   1985   1987     1   0.10969 276646.080000
   1988   1989     1   0.10969 276646.080000
   1988   1990     1   0.10969 276646.080000
   1991   1992     1   0.10969 276646.080000
   1991   1993     1   0.10969 276646.080000
   1994   1995     1   0.10969 276646.080000
   1994   1996     1   0.10969 276646.080000
   1997   1998     1   0.10969 276646.080000
   1997   1999     1   0.10969 276646.080000
   2002   2003     1   0.10969 276646.080000
   2002   2004     1   0.10969 276646.080000
   2005   2006     1   0.10969 276646.080000
   2005   2007     1   0.10969 276646.080000
   2008   2009     1   0.10969 276646.080000
   2008   2010     1   0.10969 276646.080000
   2011   2012     1   0.10969 276646.080000
   2011   2013     1   0.10969 276646.080000
   2014   2015     1   0.10969 276646.080000
   2014   2016     1   0.10969 276646.080000
   2017   2018     1   0.10969 276646.080000
   2017   2019     1   0.10969 276646.080000
   2020   2021     1   0.10969 276646.080000
   2020   2022     1   0.10969 276646.080000
   2023   2024     1   0.10969 276646.080000
   2023   2025     1   0.10969 276646.080000
   2026   2027     1   0.10969 276646.080000
   2026   2028     1   0.10969 276646.080000
   2031   2032     1   0.10969 276646.080000
   2031   2033     1   0.10969 276646.080000
   2034   2035     1   0.10969 276646.080000
   2034   2036     1   0.10969 276646.080000
   2037   2038     1   0.10969 276646.080000
   2037   2039     1   0.10969 276646.080000
   2040   2041     1   0.10969 276646.080000
   2040   2042     1   0.10969 276646.080000
   2043   2044     1   0.10969 276646.080000
   2043   2045     1   0.10969 276646.080000
   2046   2047     1   0.10969 276646.080000
   2046   2048     1   0.10969 276646.080000
   2049   2050     1   0.10969 276646.080000
   2049   2051     1   0.10969 276646.080000
   2052   2053     1   0.10969 276646.080000
   2052   2054     1   0.10969 276646.080000
   2055   2056     1   0.10969 276646.080000
   2055   2057     1   0.10969 276646.080000
   2060   2061     1   0.10969 276646.080000
   2060   2062     1   0.10969 276646.080000
   2063   2064     1   0.10969 276646.080000
   2063   2065     1   0.10969 276646.080000
   2066   2067     1   0.10969 276646.080000
   2066   2068     1   0.10969 276646.080000
   2069   2070     1   0.10969 276646.080000
   2069   2071     1   0.10969 276646.080000
   2072   2073     1   0.10969 276646.080000
   2072   2074     1   0.10969 276646.080000
   2075   2076     1   0.10969 276646.080000
   2075   2077     1   0.10969 276646.080000
   2078   2079     1   0.10969 276646.080000
   2078   2080     1   0.10969 276646.080000
   2081   2082     1   0.10969 276646.080000
   2081   2083     1   0.10969 276646.080000
   2084   2085     1   0.10969 276646.080000
   2084   2086     1   0.10969 276646.080000
   2089   2090     1   0.10969 276646.080000
   2089   2091     1   0.10969 276646.080000
   2092   2093     1   0.10969 276646.080000
   2092   2094     1   0.10969 276646.080000
   2095   2096     1   0.10969 276646.080000
   2095   2097     1   0.10969 276646.080000
   2098   2099     1   0.10969 276646.080000
   2098   2100     1   0.10969 276646.080000
   2101   2102     1   0.10969 276646.080000
   2101   2103     1   0.10969 276646.080000
   2104   2105     1   0.10969 276646.080000
   2104   2106     1   0.10969 276646.080000
   2107   2108     1   0.10969 276646.080000
   2107   2109     1   0.10969 276646.080000
   2110   2111     1   0.10969 276646.080000
   2110   2112     1   0.10969 276646.080000
   2113   2114     1   0.10969 276646.080000
   2113   2115     1   0.10969 276646.080000
   2118   2119     1   0.10969 276646.080000
   2118   2120     1   0.10969 276646.080000
   2121   2122     1   0.10969 276646.080000
   2121   2123     1   0.10969 276646.080000
   2124   2125     1   0.10969 276646.080000
   2124   2126     1   0.10969 276646.080000
   2127   2128     1   0.10969 276646.080000
   2127   2129     1   0.10969 276646.080000
   2130   2131     1   0.10969 276646.080000
   2130   2132     1   0.10969 276646.080000
   2133   2134     1   0.10969 276646.080000
   2133   2135     1   0.10969 276646.080000
   2136   2137     1   0.10969 276646.080000
   2136   2138     1   0.10969 276646.080000
   2139   2140     1   0.10969 276646.080000
   2139   2141     1   0.10969 276646.080000
   2142   2143     1   0.10969 276646.080000
   2142   2144     1   0.10969 276646.080000
   2147   2148     1   0.10969 276646.080000
   2147   2149     1   0.10969 276646.080000
   2150   2151     1   0.10969 276646.080000
   2150   2152     1   0.10969 276646.080000
   2153   2154     1   0.10969 276646.080000
   2153   2155     1   0.10969 276646.080000
   2156   2157     1   0.10969 276646.080000
   2156   2158     1   0.10969 276646.080000
   2159   2160     1   0.10969 276646.080000
   2159   2161     1   0.10969 276646.080000
   2162   2163     1   0.10969 276646.080000
   2162   2164     1   0.10969 276646.080000
   2165   2166     1   0.10969 276646.080000
   2165   2167     1   0.10969 276646.080000
   2168   2169     1   0.10969 276646.080000
   2168   2170     1   0.10969 276646.080000
   2171   2172     1   0.10969 276646.080000
   2171   2173     1   0.10969 276646.080000
   2176   2177     1   0.10969 276646.080000
   2176   2178     1   0.10969 276646.080000
   2179   2180     1   0.10969 276646.080000
   2179   2181     1   0.10969 276646.080000
   2182   2183     1   0.10969 276646.080000
   2182   2184     1   0.10969 276646.080000
   2185   2186     1   0.10969 276646.080000
   2185   2187     1   0.10969 276646.080000
   2188   2189     1   0.10969 276646.080000
   2188   2190     1   0.10969 276646.080000
   2191   2192     1   0.10969 276646.080000
   2191   2193     1   0.10969 276646.080000
   2194   2195     1   0.10969 276646.080000
   2194   2196     1   0.10969 276646.080000
   2197   2198     1   0.10969 276646.080000
   2197   2199     1   0.10969 276646.080000
   2200   2201     1   0.10969 276646.080000
   2200   2202     1   0.10969 276646.080000
   2205   2206     1   0.10969 276646.080000
   2205   2207     1   0.10969 276646.080000
   2208   2209     1   0.10969 276646.080000
   2208   2210     1   0.10969 276646.080000
   2211   2212     1   0.10969 276646.080000
   2211   2213     1   0.10969 276646.080000
   2214   2215     1   0.10969 276646.080000
   2214   2216     1   0.10969 276646.080000
   2217   2218     1   0.10969 276646.080000
   2217   2219     1   0.10969 276646.080000
   2220   2221     1   0.10969 276646.080000
   2220   2222     1   0.10969 276646.080000
   2223   2224     1   0.10969 276646.080000
   2223   2225     1   0.10969 276646.080000
   2226   2227     1   0.10969 276646.080000
   2226   2228     1   0.10969 276646.080000
   2229   2230     1   0.10969 276646.080000
   2229   2231     1   0.10969 276646.080000
   2234   2235     1   0.10969 276646.080000
   2234   2236     1   0.10969 276646.080000
   2237   2238     1   0.10969 276646.080000
   2237   2239     1   0.10969 276646.080000
   2240   2241     1   0.10969 276646.080000
   2240   2242     1   0.10969 276646.080000
   2243   2244     1   0.10969 276646.080000
   2243   2245     1   0.10969 276646.080000
   2246   2247     1   0.10969 276646.080000
   2246   2248     1   0.10969 276646.080000
   2249   2250     1   0.10969 276646.080000
   2249   2251     1   0.10969 276646.080000
   2252   2253     1   0.10969 276646.080000
   2252   2254     1   0.10969 276646.080000
   2255   2256     1   0.10969 276646.080000
   2255   2257     1   0.10969 276646.080000
   2258   2259     1   0.10969 276646.080000
   2258   2260     1   0.10969 276646.080000
   2263   2264     1   0.10969 276646.080000
   2263   2265     1   0.10969 276646.080000
   2266   2267     1   0.10969 276646.080000
   2266   2268     1   0.10969 276646.080000
   2269   2270     1   0.10969 276646.080000
   2269   2271     1   0.10969 276646.080000
   2272   2273     1   0.10969 276646.080000
   2272   2274     1   0.10969 276646.080000
   2275   2276     1   0.10969 276646.080000
   2275   2277     1   0.10969 276646.080000
   2278   2279     1   0.10969 276646.080000
   2278   2280     1   0.10969 276646.080000
   2281   2282     1   0.10969 276646.080000
   2281   2283     1   0.10969 276646.080000
   2284   2285     1   0.10969 276646.080000
   2284   2286     1   0.10969 276646.080000
   2287   2288     1   0.10969 276646.080000
   2287   2289     1   0.10969 276646.080000
   2292   2293     1   0.10969 276646.080000
   2292   2294     1   0.10969 276646.080000
   2295   2296     1   0.10969 276646.080000
   2295   2297     1   0.10969 276646.080000
   2298   2299     1   0.10969 276646.080000
   2298   2300     1   0.10969 276646.080000
   2301   2302     1   0.10969 276646.080000
   2301   2303     1   0.10969 276646.080000
   2304   2305     1   0.10969 276646.080000
   2304   2306     1   0.10969 276646.080000
   2307   2308     1   0.10969 276646.080000
   2307   2309     1   0.10969 276646.080000
   2310   2311     1   0.10969 276646.080000
   2310   2312     1   0.10969 276646.080000
   2313   2314     1   0.10969 276646.080000
   2313   2315     1   0.10969 276646.080000
   2316   2317     1   0.10969 276646.080000
   2316   2318     1   0.10969 276646.080000
   2321   2322     1   0.10969 276646.080000
   2321   2323     1   0.10969 276646.080000
   2324   2325     1   0.10969 276646.080000
   2324   2326     1   0.10969 276646.080000
   2327   2328     1   0.10969 276646.080000
   2327   2329     1   0.10969 276646.080000
   2330   2331     1   0.10969 276646.080000
   2330   2332     1   0.10969 276646.080000
   2333   2334     1   0.10969 276646.080000
   2333   2335     1   0.10969 276646.080000
   2336   2337     1   0.10969 276646.080000
   2336   2338     1   0.10969 276646.080000
   2339   2340     1   0.10969 276646.080000
   2339   2341     1   0.10969 276646.080000
   2342   2343     1   0.10969 276646.080000
   2342   2344     1   0.10969 276646.080000
   2345   2346     1   0.10969 276646.080000
   2345   2347     1   0.10969 276646.080000
   2350   2351     1   0.10969 276646.080000
   2350   2352     1   0.10969 276646.080000
   2353   2354     1   0.10969 276646.080000
   2353   2355     1   0.10969 276646.080000
   2356   2357     1   0.10969 276646.080000
   2356   2358     1   0.10969 276646.080000
   2359   2360     1   0.10969 276646.080000
   2359   2361     1   0.10969 276646.080000
   2362   2363     1   0.10969 276646.080000
   2362   2364     1   0.10969 276646.080000
   2365   2366     1   0.10969 276646.080000
   2365   2367     1   0.10969 276646.080000
   2368   2369     1   0.10969 276646.080000
   2368   2370     1   0.10969 276646.080000
   2371   2372     1   0.10969 276646.080000
   2371   2373     1   0.10969 276646.080000
   2374   2375     1   0.10969 276646.080000
   2374   2376     1   0.10969 276646.080000
   2379   2380     1   0.10969 276646.080000
   2379   2381     1   0.10969 276646.080000
   2382   2383     1   0.10969 276646.080000
   2382   2384     1   0.10969 276646.080000
   2385   2386     1   0.10969 276646.080000
   2385   2387     1   0.10969 276646.080000
   2388   2389     1   0.10969 276646.080000
   2388   2390     1   0.10969 276646.080000
   2391   2392     1   0.10969 276646.080000
   2391   2393     1   0.10969 276646.080000
   2394   2395     1   0.10969 276646.080000
   2394   2396     1   0.10969 276646.080000
   2397   2398     1   0.10969 276646.080000
   2397   2399     1   0.10969 276646.080000
   2400   2401     1   0.10969 276646.080000
   2400   2402     1   0.10969 276646.080000
   2403   2404     1   0.10969 276646.080000
   2403   2405     1   0.10969 276646.080000
   2408   2409     1   0.10969 276646.080000
   2408   2410     1   0.10969 276646.080000
   2411   2412     1   0.10969 276646.080000
   2411   2413     1   0.10969 276646.080000
   2414   2415     1   0.10969 276646.080000
   2414   2416     1   0.10969 276646.080000
   2417   2418     1   0.10969 276646.080000
   2417   2419     1   0.10969 276646.080000
   2420   2421     1   0.10969 276646.080000
   2420   2422     1   0.10969 276646.080000
   2423   2424     1   0.10969 276646.080000
   2423   2425     1   0.10969 276646.080000
   2426   2427     1   0.10969 276646.080000
   2426   2428     1   0.10969 276646.080000
   2429   2430     1   0.10969 276646.080000
   2429   2431     1   0.10969 276646.080000
   2432   2433     1   0.10969 276646.080000
   2432   2434     1   0.10969 276646.080000
   2437   2438     1   0.10969 276646.080000
   2437   2439     1   0.10969 276646.080000
   2440   2441     1   0.10969 276646.080000
   2440   2442     1   0.10969 276646.080000
   2443   2444     1   0.10969 276646.080000
   2443   2445     1   0.10969 276646.080000
   2446   2447     1   0.10969 276646.080000
   2446   2448     1   0.10969 276646.080000
   2449   2450     1   0.10969 276646.080000
   2449   2451     1   0.10969 276646.080000
   2452   2453     1   0.10969 276646.080000
   2452   2454     1   0.10969 276646.080000
   2455   2456     1   0.10969 276646.080000
   2455   2457     1   0.10969 276646.080000
   2458   2459     1   0.10969 276646.080000
   2458   2460     1   0.10969 276646.080000
   2461   2462     1   0.10969 276646.080000
   2461   2463     1   0.10969 276646.080000
   2466   2467     1   0.10969 276646.080000
   2466   2468     1   0.10969 276646.080000
   2469   2470     1   0.10969 276646.080000
   2469   2471     1   0.10969 276646.080000
   2472   2473     1   0.10969 276646.080000
   2472   2474     1   0.10969 276646.080000
   2475   2476     1   0.10969 276646.080000
   2475   2477     1   0.10969 276646.080000
   2478   2479     1   0.10969 276646.080000
   2478   2480     1   0.10969 276646.080000
   2481   2482     1   0.10969 276646.080000
   2481   2483     1   0.10969 276646.080000
   2484   2485     1   0.10969 276646.080000
   2484   2486     1   0.10969 276646.080000
   2487   2488     1   0.10969 276646.080000
   2487   2489     1   0.10969 276646.080000
   2490   2491     1   0.10969 276646.080000
   2490   2492     1   0.10969 276646.080000
   2495   2496     1   0.10969 276646.080000
   2495   2497     1   0.10969 276646.080000
   2498   2499     1   0.10969 276646.080000
   2498   2500     1   0.10969 276646.080000
   2501   2502     1   0.10969 276646.080000
   2501   2503     1   0.10969 276646.080000
   2504   2505     1   0.10969 276646.080000
   2504   2506     1   0.10969 276646.080000
   2507   2508     1   0.10969 276646.080000
   2507   2509     1   0.10969 276646.080000
   2510   2511     1   0.10969 276646.080000
   2510   2512     1   0.10969 276646.080000
   2513   2514     1   0.10969 276646.080000
   2513   2515     1   0.10969 276646.080000
   2516   2517     1   0.10969 276646.080000
   2516   2518     1   0.10969 276646.080000
   2519   2520     1   0.10969 276646.080000
   2519   2521     1   0.10969 276646.080000
   2524   2525     1   0.10969 276646.080000
   2524   2526     1   0.10969 276646.080000
   2527   2528     1   0.10969 276646.080000
   2527   2529     1   0.10969 276646.080000
   2530   2531     1   0.10969 276646.080000
   2530   2532     1   0.10969 276646.080000
   2533   2534     1   0.10969 276646.080000
   2533   2535     1   0.10969 276646.080000
   2536   2537     1   0.10969 276646.080000
   2536   2538     1   0.10969 276646.080000
   2539   2540     1   0.10969 276646.080000
   2539   2541     1   0.10969 276646.080000
   2542   2543     1   0.10969 276646.080000
   2542   2544     1   0.10969 276646.080000
   2545   2546     1   0.10969 276646.080000
   2545   2547     1   0.10969 276646.080000
   2548   2549     1   0.10969 276646.080000
   2548   2550     1   0.10969 276646.080000
   2553   2554     1   0.10969 276646.080000
   2553   2555     1   0.10969 276646.080000
   2556   2557     1   0.10969 276646.080000
   2556   2558     1   0.10969 276646.080000
   2559   2560     1   0.10969 276646.080000
   2559   2561     1   0.10969 276646.080000
   2562   2563     1   0.10969 276646.080000
   2562   2564     1   0.10969 276646.080000
   2565   2566     1   0.10969 276646.080000
   2565   2567     1   0.10969 276646.080000
   2568   2569     1   0.10969 276646.080000
   2568   2570     1   0.10969 276646.080000
   2571   2572     1   0.10969 276646.080000
   2571   2573     1   0.10969 276646.080000
   2574   2575     1   0.10969 276646.080000
   2574   2576     1   0.10969 276646.080000
   2577   2578     1   0.10969 276646.080000
   2577   2579     1   0.10969 276646.080000
   2582   2583     1   0.10969 276646.080000
   2582   2584     1   0.10969 276646.080000
   2585   2586     1   0.10969 276646.080000
   2585   2587     1   0.10969 276646.080000
   2588   2589     1   0.10969 276646.080000
   2588   2590     1   0.10969 276646.080000
   2591   2592     1   0.10969 276646.080000
   2591   2593     1   0.10969 276646.080000
   2594   2595     1   0.10969 276646.080000
   2594   2596     1   0.10969 276646.080000
   2597   2598     1   0.10969 276646.080000
   2597   2599     1   0.10969 276646.080000
   2600   2601     1   0.10969 276646.080000
   2600   2602     1   0.10969 276646.080000
   2603   2604     1   0.10969 276646.080000
   2603   2605     1   0.10969 276646.080000
   2606   2607     1   0.10969 276646.080000
   2606   2608     1   0.10969 276646.080000
   2611   2612     1   0.10969 276646.080000
   2611   2613     1   0.10969 276646.080000
   2614   2615     1   0.10969 276646.080000
   2614   2616     1   0.10969 276646.080000
   2617   2618     1   0.10969 276646.080000
   2617   2619     1   0.10969 276646.080000
   2620   2621     1   0.10969 276646.080000
   2620   2622     1   0.10969 276646.080000
   2623   2624     1   0.10969 276646.080000
   2623   2625     1   0.10969 276646.080000
   2626   2627     1   0.10969 276646.080000
   2626   2628     1   0.10969 276646.080000
   2629   2630     1   0.10969 276646.080000
   2629   2631     1   0.10969 276646.080000
   2632   2633     1   0.10969 276646.080000
   2632   2634     1   0.10969 276646.080000
   2635   2636     1   0.10969 276646.080000
   2635   2637     1   0.10969 276646.080000
   2640   2641     1   0.10969 276646.080000
   2640   2642     1   0.10969 276646.080000
   2643   2644     1   0.10969 276646.080000
   2643   2645     1   0.10969 276646.080000
   2646   2647     1   0.10969 276646.080000
   2646   2648     1   0.10969 276646.080000
   2649   2650     1   0.10969 276646.080000
   2649   2651     1   0.10969 276646.080000
   2652   2653     1   0.10969 276646.080000
   2652   2654     1   0.10969 276646.080000
   2655   2656     1   0.10969 276646.080000
   2655   2657     1   0.10969 276646.080000
   2658   2659     1   0.10969 276646.080000
   2658   2660     1   0.10969 276646.080000
   2661   2662     1   0.10969 276646.080000
   2661   2663     1   0.10969 276646.080000
   2664   2665     1   0.10969 276646.080000
   2664   2666     1   0.10969 276646.080000
   2669   2670     1   0.10969 276646.080000
   2669   2671     1   0.10969 276646.080000
   2672   2673     1   0.10969 276646.080000
   2672   2674     1   0.10969 276646.080000
   2675   2676     1   0.10969 276646.080000
   2675   2677     1   0.10969 276646.080000
   2678   2679     1   0.10969 276646.080000
   2678   2680     1   0.10969 276646.080000
   2681   2682     1   0.10969 276646.080000
   2681   2683     1   0.10969 276646.080000
   2684   2685     1   0.10969 276646.080000
   2684   2686     1   0.10969 276646.080000
   2687   2688     1   0.10969 276646.080000
   2687   2689     1   0.10969 276646.080000
   2690   2691     1   0.10969 276646.080000
   2690   2692     1   0.10969 276646.080000
   2693   2694     1   0.10969 276646.080000
   2693   2695     1   0.10969 276646.080000
   2698   2699     1   0.10969 276646.080000
   2698   2700     1   0.10969 276646.080000
   2701   2702     1   0.10969 276646.080000
   2701   2703     1   0.10969 276646.080000
   2704   2705     1   0.10969 276646.080000
   2704   2706     1   0.10969 276646.080000
   2707   2708     1   0.10969 276646.080000
   2707   2709     1   0.10969 276646.080000
   2710   2711     1   0.10969 276646.080000
   2710   2712     1   0.10969 276646.080000
   2713   2714     1   0.10969 276646.080000
   2713   2715     1   0.10969 276646.080000
   2716   2717     1   0.10969 276646.080000
   2716   2718     1   0.10969 276646.080000
   2719   2720     1   0.10969 276646.080000
   2719   2721     1   0.10969 276646.080000
   2722   2723     1   0.10969 276646.080000
   2722   2724     1   0.10969 276646.080000
   2726   2727     1   0.10969 276646.080000
   2726   2728     1   0.10969 276646.080000
   2729   2730     1   0.10969 276646.080000
   2729   2731     1   0.10969 276646.080000
   2732   2733     1   0.10969 276646.080000
   2732   2734     1   0.10969 276646.080000
   2736   2737     1   0.10969 276646.080000
   2736   2738     1   0.10969 276646.080000
   2739   2740     1   0.10969 276646.080000
   2739   2741     1   0.10969 276646.080000
   2744   2745     1   0.09730 310787.520000
   2746   2747     1   0.10969 276646.080000
   2746   2748     1   0.10969 276646.080000
   2749   2750     1   0.10969 276646.080000
   2749   2751     1   0.10969 276646.080000
   2754   2755     1   0.09730 310787.520000
   2757   2758     1   0.10969 276646.080000
   2757   2759     1   0.10969 276646.080000
   2760   2761     1   0.10969 276646.080000
   2760   2762     1   0.10969 276646.080000
   2763   2764     1   0.10969 276646.080000
   2763   2765     1   0.10969 276646.080000
   2767   2768     1   0.10969 276646.080000
   2767   2769     1   0.10969 276646.080000
   2770   2771     1   0.10969 276646.080000
   2770   2772     1   0.10969 276646.080000
   2775   2776     1   0.09730 310787.520000
   2777   2778     1   0.10969 276646.080000
   2777   2779     1   0.10969 276646.080000
   2780   2781     1   0.10969 276646.080000
   2780   2782     1   0.10969 276646.080000
   2785   2786     1   0.09730 310787.520000
   2788   2789     1   0.10969 276646.080000
   2788   2790     1   0.10969 276646.080000
   2791   2792     1   0.10969 276646.080000
   2791   2793     1   0.10969 276646.080000
   2794   2795     1   0.10969 276646.080000
   2794   2796     1   0.10969 276646.080000
   2798   2799     1   0.10969 276646.080000
   2798   2800     1   0.10969 276646.080000
   2801   2802     1   0.10969 276646.080000
   2801   2803     1   0.10969 276646.080000
   2806   2807     1   0.09730 310787.520000
   2808   2809     1   0.10969 276646.080000
   2808   2810     1   0.10969 276646.080000
   2811   2812     1   0.10969 276646.080000
   2811   2813     1   0.10969 276646.080000
   2816   2817     1   0.09730 310787.520000
   2819   2820     1   0.10969 276646.080000
   2819   2821     1   0.10969 276646.080000
   2822   2823     1   0.10969 276646.080000
   2822   2824     1   0.10969 276646.080000
   2825   2826     1   0.10969 276646.080000
   2825   2827     1   0.10969 276646.080000
   2829   2830     1   0.10969 276646.080000
   2829   2831     1   0.10969 276646.080000
   2832   2833     1   0.10969 276646.080000
   2832   2834     1   0.10969 276646.080000
   2837   2838     1   0.09730 310787.520000
   2839   2840     1   0.10969 276646.080000
   2839   2841     1   0.10969 276646.080000
   2842   2843     1   0.10969 276646.080000
   2842   2844     1   0.10969 276646.080000
   2847   2848     1   0.09730 310787.520000
   2850   2851     1   0.10969 276646.080000
   2850   2852     1   0.10969 276646.080000
   2853   2854     1   0.10969 276646.080000
   2853   2855     1   0.10969 276646.080000
   2856   2857     1   0.10969 276646.080000
   2856   2858     1   0.10969 276646.080000
   2860   2861     1   0.10969 276646.080000
   2860   2862     1   0.10969 276646.080000
   2863   2864     1   0.10969 276646.080000
   2863   2865     1   0.10969 276646.080000
   2868   2869     1   0.09730 310787.520000
   2870   2871     1   0.10969 276646.080000
   2870   2872     1   0.10969 276646.080000
   2873   2874     1   0.10969 276646.080000
   2873   2875     1   0.10969 276646.080000
   2878   2879     1   0.09730 310787.520000
   2881   2882     1   0.10969 276646.080000
   2881   2883     1   0.10969 276646.080000
   2884   2885     1   0.10969 276646.080000
   2884   2886     1   0.10969 276646.080000
   2887   2888     1   0.10969 276646.080000
   2887   2889     1   0.10969 276646.080000
   2891   2892     1   0.10969 276646.080000
   2891   2893     1   0.10969 276646.080000
   2894   2895     1   0.10969 276646.080000
   2894   2896     1   0.10969 276646.080000
   2899   2900     1   0.09730 310787.520000
   2901   2902     1   0.10969 276646.080000
   2901   2903     1   0.10969 276646.080000
   2904   2905     1   0.10969 276646.080000
   2904   2906     1   0.10969 276646.080000
   2909   2910     1   0.09730 310787.520000
   2912   2913     1   0.10969 276646.080000
   2912   2914     1   0.10969 276646.080000
   2915   2916     1   0.10969 276646.080000
   2915   2917     1   0.10969 276646.080000
   2918   2919     1   0.10969 276646.080000
   2918   2920     1   0.10969 276646.080000
   2922   2923     1   0.10969 276646.080000
   2922   2924     1   0.10969 276646.080000
   2925   2926     1   0.10969 276646.080000
   2925   2927     1   0.10969 276646.080000
   2930   2931     1   0.09730 310787.520000
   2932   2933     1   0.10969 276646.080000
   2932   2934     1   0.10969 276646.080000
   2935   2936     1   0.10969 276646.080000
   2935   2937     1   0.10969 276646.080000
   2940   2941     1   0.09730 310787.520000
   2943   2944     1   0.10969 276646.080000
   2943   2945     1   0.10969 276646.080000
   2946   2947     1   0.10969 276646.080000
   2946   2948     1   0.10969 276646.080000
   2949   2950     1   0.10969 276646.080000
   2949   2951     1   0.10969 276646.080000
   2953   2954     1   0.10969 276646.080000
   2953   2955     1   0.10969 276646.080000
   2956   2957     1   0.10969 276646.080000
   2956   2958     1   0.10969 276646.080000
   2961   2962     1   0.09730 310787.520000
   2963   2964     1   0.10969 276646.080000
   2963   2965     1   0.10969 276646.080000
   2966   2967     1   0.10969 276646.080000
   2966   2968     1   0.10969 276646.080000
   2971   2972     1   0.09730 310787.520000
   2974   2975     1   0.10969 276646.080000
   2974   2976     1   0.10969 276646.080000
   2977   2978     1   0.10969 276646.080000
   2977   2979     1   0.10969 276646.080000
   2980   2981     1   0.10969 276646.080000
   2980   2982     1   0.10969 276646.080000
   2984   2985     1   0.10969 276646.080000
   2984   2986     1   0.10969 276646.080000
   2987   2988     1   0.10969 276646.080000
   2987   2989     1   0.10969 276646.080000
   2992   2993     1   0.09730 310787.520000
   2994   2995     1   0.10969 276646.080000
   2994   2996     1   0.10969 276646.080000
   2997   2998     1   0.10969 276646.080000
   2997   2999     1   0.10969 276646.080000
   3002   3003     1   0.09730 310787.520000
   3005   3006     1   0.10969 276646.080000
   3005   3007     1   0.10969 276646.080000
   3008   3009     1   0.10969 276646.080000
   3008   3010     1   0.10969 276646.080000
   3011   3012     1   0.10969 276646.080000
   3011   3013     1   0.10969 276646.080000
   3015   3016     1   0.10969 276646.080000
   3015   3017     1   0.10969 276646.080000
   3018   3019     1   0.10969 276646.080000
   3018   3020     1   0.10969 276646.080000
   3023   3024     1   0.09730 310787.520000
   3025   3026     1   0.10969 276646.080000
   3025   3027     1   0.10969 276646.080000
   3028   3029     1   0.10969 276646.080000
   3028   3030     1   0.10969 276646.080000
   3033   3034     1   0.09730 310787.520000
   3036   3037     1   0.10969 276646.080000
   3036   3038     1   0.10969 276646.080000
   3039   3040     1   0.10969 276646.080000
   3039   3041     1   0.10969 276646.080000
   3042   3043     1   0.10969 276646.080000
   3042   3044     1   0.10969 276646.080000
   3046   3047     1   0.10969 276646.080000
   3046   3048     1   0.10969 276646.080000
   3049   3050     1   0.10969 276646.080000
   3049   3051     1   0.10969 276646.080000
   3054   3055     1   0.09730 310787.520000
   3056   3057     1   0.10969 276646.080000
   3056   3058     1   0.10969 276646.080000
   3059   3060     1   0.10969 276646.080000
   3059   3061     1   0.10969 276646.080000
   3064   3065     1   0.09730 310787.520000
   3067   3068     1   0.10969 276646.080000
   3067   3069     1   0.10969 276646.080000
   3070   3071     1   0.10969 276646.080000
   3070   3072     1   0.10969 276646.080000
   3073   3074     1   0.10969 276646.080000
   3073   3075     1   0.10969 276646.080000
   3077   3078     1   0.10969 276646.080000
   3077   3079     1   0.10969 276646.080000
   3080   3081     1   0.10969 276646.080000
   3080   3082     1   0.10969 276646.080000
   3085   3086     1   0.09730 310787.520000
   3087   3088     1   0.10969 276646.080000
   3087   3089     1   0.10969 276646.080000
   3090   3091     1   0.10969 276646.080000
   3090   3092     1   0.10969 276646.080000
   3095   3096     1   0.09730 310787.520000
   3098   3099     1   0.10969 276646.080000
   3098   3100     1   0.10969 276646.080000
   3101   3102     1   0.10969 276646.080000
   3101   3103     1   0.10969 276646.080000
   3104   3105     1   0.10969 276646.080000
   3104   3106     1   0.10969 276646.080000
   3108   3109     1   0.10969 276646.080000
   3108   3110     1   0.10969 276646.080000
   3111   3112     1   0.10969 276646.080000
   3111   3113     1   0.10969 276646.080000
   3116   3117     1   0.09730 310787.520000
   3118   3119     1   0.10969 276646.080000
   3118   3120     1   0.10969 276646.080000
   3121   3122     1   0.10969 276646.080000
   3121   3123     1   0.10969 276646.080000
   3126   3127     1   0.09730 310787.520000
   3129   3130     1   0.10969 276646.080000
   3129   3131     1   0.10969 276646.080000
   3132   3133     1   0.10969 276646.080000
   3132   3134     1   0.10969 276646.080000
   3135   3136     1   0.10969 276646.080000
   3135   3137     1   0.10969 276646.080000
   3139   3140     1   0.10969 276646.080000
   3139   3141     1   0.10969 276646.080000
   3142   3143     1   0.10969 276646.080000
   3142   3144     1   0.10969 276646.080000
   3147   3148     1   0.09730 310787.520000
   3149   3150     1   0.10969 276646.080000
   3149   3151     1   0.10969 276646.080000
   3152   3153     1   0.10969 276646.080000
   3152   3154     1   0.10969 276646.080000
   3157   3158     1   0.09730 310787.520000
   3160   3161     1   0.10969 276646.080000
   3160   3162     1   0.10969 276646.080000
   3163   3164     1   0.10969 276646.080000
   3163   3165     1   0.10969 276646.080000
   3166   3167     1   0.10969 276646.080000
   3166   3168     1   0.10969 276646.080000
   3170   3171     1   0.10969 276646.080000
   3170   3172     1   0.10969 276646.080000
   3173   3174     1   0.10969 276646.080000
   3173   3175     1   0.10969 276646.080000
   3178   3179     1   0.09730 310787.520000
   3180   3181     1   0.10969 276646.080000
   3180   3182     1   0.10969 276646.080000
   3183   3184     1   0.10969 276646.080000
   3183   3185     1   0.10969 276646.080000
   3188   3189     1   0.09730 310787.520000
   3191   3192     1   0.10969 276646.080000
   3191   3193     1   0.10969 276646.080000
   3194   3195     1   0.10969 276646.080000
   3194   3196     1   0.10969 276646.080000
   3197   3198     1   0.10969 276646.080000
   3197   3199     1   0.10969 276646.080000
   3201   3202     1   0.10969 276646.080000
   3201   3203     1   0.10969 276646.080000
   3204   3205     1   0.10969 276646.080000
   3204   3206     1   0.10969 276646.080000
   3209   3210     1   0.09730 310787.520000
   3211   3212     1   0.10969 276646.080000
   3211   3213     1   0.10969 276646.080000
   3214   3215     1   0.10969 276646.080000
   3214   3216     1   0.10969 276646.080000
   3219   3220     1   0.09730 310787.520000
   3222   3223     1   0.10969 276646.080000
   3222   3224     1   0.10969 276646.080000
   3225   3226     1   0.10969 276646.080000
   3225   3227     1   0.10969 276646.080000
   3228   3229     1   0.10969 276646.080000
   3228   3230     1   0.10969 276646.080000
   3232   3233     1   0.10969 276646.080000
   3232   3234     1   0.10969 276646.080000
   3235   3236     1   0.10969 276646.080000
   3235   3237     1   0.10969 276646.080000
   3240   3241     1   0.09730 310787.520000
   3242   3243     1   0.10969 276646.080000
   3242   3244     1   0.10969 276646.080000
   3245   3246     1   0.10969 276646.080000
   3245   3247     1   0.10969 276646.080000
   3250   3251     1   0.09730 310787.520000
   3253   3254     1   0.10969 276646.080000
   3253   3255     1   0.10969 276646.080000
   3256   3257     1   0.10969 276646.080000
   3256   3258     1   0.10969 276646.080000
   3259   3260     1   0.10969 276646.080000
   3259   3261     1   0.10969 276646.080000
   3263   3264     1   0.10969 276646.080000
   3263   3265     1   0.10969 276646.080000
   3266   3267     1   0.10969 276646.080000
   3266   3268     1   0.10969 276646.080000
   3271   3272     1   0.09730 310787.520000
   3273   3274     1   0.10969 276646.080000
   3273   3275     1   0.10969 276646.080000
   3276   3277     1   0.10969 276646.080000
   3276   3278     1   0.10969 276646.080000
   3281   3282     1   0.09730 310787.520000
   3284   3285     1   0.10969 276646.080000
   3284   3286     1   0.10969 276646.080000
   3287   3288     1   0.10969 276646.080000
   3287   3289     1   0.10969 276646.080000
   3290   3291     1   0.10969 276646.080000
   3290   3292     1   0.10969 276646.080000
   3294   3295     1   0.10969 276646.080000
   3294   3296     1   0.10969 276646.080000
   3297   3298     1   0.10969 276646.080000
   3297   3299     1   0.10969 276646.080000
   3302   3303     1   0.09730 310787.520000
   3304   3305     1   0.10969 276646.080000
   3304   3306     1   0.10969 276646.080000
   3307   3308     1   0.10969 276646.080000
   3307   3309     1   0.10969 276646.080000
   3312   3313     1   0.09730 310787.520000
   3315   3316     1   0.10969 276646.080000
   3315   3317     1   0.10969 276646.080000
   3318   3319     1   0.10969 276646.080000
   3318   3320     1   0.10969 276646.080000
   3321   3322     1   0.10969 276646.080000
   3321   3323     1   0.10969 276646.080000
   3325   3326     1   0.10969 276646.080000
   3325   3327     1   0.10969 276646.080000
   3328   3329     1   0.10969 276646.080000
   3328   3330     1   0.10969 276646.080000
   3333   3334     1   0.09730 310787.520000
   3335   3336     1   0.10969 276646.080000
   3335   3337     1   0.10969 276646.080000
   3338   3339     1   0.10969 276646.080000
   3338   3340     1   0.10969 276646.080000
   3343   3344     1   0.09730 310787.520000
   3346   3347     1   0.10969 276646.080000
   3346   3348     1   0.10969 276646.080000
   3349   3350     1   0.10969 276646.080000
   3349   3351     1   0.10969 276646.080000
   3352   3353     1   0.10969 276646.080000
   3352   3354     1   0.10969 276646.080000
   3356   3357     1   0.10969 276646.080000
   3356   3358     1   0.10969 276646.080000
   3359   3360     1   0.10969 276646.080000
   3359   3361     1   0.10969 276646.080000
   3364   3365     1   0.09730 310787.520000
   3366   3367     1   0.10969 276646.080000
   3366   3368     1   0.10969 276646.080000
   3369   3370     1   0.10969 276646.080000
   3369   3371     1   0.10969 276646.080000
   3374   3375     1   0.09730 310787.520000
   3377   3378     1   0.10969 276646.080000
   3377   3379     1   0.10969 276646.080000
   3380   3381     1   0.10969 276646.080000
   3380   3382     1   0.10969 276646.080000
   3383   3384     1   0.10969 276646.080000
   3383   3385     1   0.10969 276646.080000
   3387   3388     1   0.10969 276646.080000
   3387   3389     1   0.10969 276646.080000
   3390   3391     1   0.10969 276646.080000
   3390   3392     1   0.10969 276646.080000
   3395   3396     1   0.09730 310787.520000
   3397   3398     1   0.10969 276646.080000
   3397   3399     1   0.10969 276646.080000
   3400   3401     1   0.10969 276646.080000
   3400   3402     1   0.10969 276646.080000
   3405   3406     1   0.09730 310787.520000
   3408   3409     1   0.10969 276646.080000
   3408   3410     1   0.10969 276646.080000
   3411   3412     1   0.10969 276646.080000
   3411   3413     1   0.10969 276646.080000
   3414   3415     1   0.10969 276646.080000
   3414   3416     1   0.10969 276646.080000
   3418   3419     1   0.10969 276646.080000
   3418   3420     1   0.10969 276646.080000
   3421   3422     1   0.10969 276646.080000
   3421   3423     1   0.10969 276646.080000
   3426   3427     1   0.09730 310787.520000
   3428   3429     1   0.10969 276646.080000
   3428   3430     1   0.10969 276646.080000
   3431   3432     1   0.10969 276646.080000
   3431   3433     1   0.10969 276646.080000
   3436   3437     1   0.09730 310787.520000
   3439   3440     1   0.10969 276646.080000
   3439   3441     1   0.10969 276646.080000
   3442   3443     1   0.10969 276646.080000
   3442   3444     1   0.10969 276646.080000
   3445   3446     1   0.10969 276646.080000
   3445   3447     1   0.10969 276646.080000
   3449   3450     1   0.10969 276646.080000
   3449   3451     1   0.10969 276646.080000
   3452   3453     1   0.10969 276646.080000
   3452   3454     1   0.10969 276646.080000
   3457   3458     1   0.09730 310787.520000
   3459   3460     1   0.10969 276646.080000
   3459   3461     1   0.10969 276646.080000
   3462   3463     1   0.10969 276646.080000
   3462   3464     1   0.10969 276646.080000
   3467   3468     1   0.09730 310787.520000
   3470   3471     1   0.10969 276646.080000
   3470   3472     1   0.10969 276646.080000
   3473   3474     1   0.10969 276646.080000
   3473   3475     1   0.10969 276646.080000
   3476   3477     1   0.10969 276646.080000
   3476   3478     1   0.10969 276646.080000
   3480   3481     1   0.10969 276646.080000
   3480   3482     1   0.10969 276646.080000
   3483   3484     1   0.10969 276646.080000
   3483   3485     1   0.10969 276646.080000
   3488   3489     1   0.09730 310787.520000
   3490   3491     1   0.10969 276646.080000
   3490   3492     1   0.10969 276646.080000
   3493   3494     1   0.10969 276646.080000
   3493   3495     1   0.10969 276646.080000
   3498   3499     1   0.09730 310787.520000
   3501   3502     1   0.10969 276646.080000
   3501   3503     1   0.10969 276646.080000
   3504   3505     1   0.10969 276646.080000
   3504   3506     1   0.10969 276646.080000
   3507   3508     1   0.10969 276646.080000
   3507   3509     1   0.10969 276646.080000
   3511   3512     1   0.10969 276646.080000
   3511   3513     1   0.10969 276646.080000
   3514   3515     1   0.10969 276646.080000
   3514   3516     1   0.10969 276646.080000
   3519   3520     1   0.09730 310787.520000
   3521   3522     1   0.10969 276646.080000
   3521   3523     1   0.10969 276646.080000
   3524   3525     1   0.10969 276646.080000
   3524   3526     1   0.10969 276646.080000
   3529   3530     1   0.09730 310787.520000
   3532   3533     1   0.10969 276646.080000
   3532   3534     1   0.10969 276646.080000
   3535   3536     1   0.10969 276646.080000
   3535   3537     1   0.10969 276646.080000
   3538   3539     1   0.10969 276646.080000
   3538   3540     1   0.10969 276646.080000
   3542   3543     1   0.10969 276646.080000
   3542   3544     1   0.10969 276646.080000
   3545   3546     1   0.10969 276646.080000
   3545   3547     1   0.10969 276646.080000
   3550   3551     1   0.09730 310787.520000
   3552   3553     1   0.10969 276646.080000
   3552   3554     1   0.10969 276646.080000
   3555   3556     1   0.10969 276646.080000
   3555   3557     1   0.10969 276646.080000
   3560   3561     1   0.09730 310787.520000
   3563   3564     1   0.10969 276646.080000
   3563   3565     1   0.10969 276646.080000
   3566   3567     1   0.10969 276646.080000
   3566   3568     1   0.10969 276646.080000
   3569   3570     1   0.10969 276646.080000
   3569   3571     1   0.10969 276646.080000
   3573   3574     1   0.10969 276646.080000
   3573   3575     1   0.10969 276646.080000
   3576   3577     1   0.10969 276646.080000
   3576   3578     1   0.10969 276646.080000
   3581   3582     1   0.09730 310787.520000
   3583   3584     1   0.10969 276646.080000
   3583   3585     1   0.10969 276646.080000
   3586   3587     1   0.10969 276646.080000
   3586   3588     1   0.10969 276646.080000
   3591   3592     1   0.09730 310787.520000
   3594   3595     1   0.10969 276646.080000
   3594   3596     1   0.10969 276646.080000
   3597   3598     1   0.10969 276646.080000
   3597   3599     1   0.10969 276646.080000
   3600   3601     1   0.10969 276646.080000
   3600   3602     1   0.10969 276646.080000
   3604   3605     1   0.10969 276646.080000
   3604   3606     1   0.10969 276646.080000
   3607   3608     1   0.10969 276646.080000
   3607   3609     1   0.10969 276646.080000
   3612   3613     1   0.09730 310787.520000
   3614   3615     1   0.10969 276646.080000
   3614   3616     1   0.10969 276646.080000
   3617   3618     1   0.10969 276646.080000
   3617   3619     1   0.10969 276646.080000
   3622   3623     1   0.09730 310787.520000
   3625   3626     1   0.10969 276646.080000
   3625   3627     1   0.10969 276646.080000
   3628   3629     1   0.10969 276646.080000
   3628   3630     1   0.10969 276646.080000
   3631   3632     1   0.10969 276646.080000
   3631   3633     1   0.10969 276646.080000
   3635   3636     1   0.10969 276646.080000
   3635   3637     1   0.10969 276646.080000
   3638   3639     1   0.10969 276646.080000
   3638   3640     1   0.10969 276646.080000
   3643   3644     1   0.09730 310787.520000
   3645   3646     1   0.10969 276646.080000
   3645   3647     1   0.10969 276646.080000
   3648   3649     1   0.10969 276646.080000
   3648   3650     1   0.10969 276646.080000
   3653   3654     1   0.09730 310787.520000
   3656   3657     1   0.10969 276646.080000
   3656   3658     1   0.10969 276646.080000
   3659   3660     1   0.10969 276646.080000
   3659   3661     1   0.10969 276646.080000
   3662   3663     1   0.10969 276646.080000
   3662   3664     1   0.10969 276646.080000
   3666   3667     1   0.10969 276646.080000
   3666   3668     1   0.10969 276646.080000
   3669   3670     1   0.10969 276646.080000
   3669   3671     1   0.10969 276646.080000
   3674   3675     1   0.09730 310787.520000
   3676   3677     1   0.10969 276646.080000
   3676   3678     1   0.10969 276646.080000
   3679   3680     1   0.10969 276646.080000
   3679   3681     1   0.10969 276646.080000
   3684   3685     1   0.09730 310787.520000
   3687   3688     1   0.10969 276646.080000
   3687   3689     1   0.10969 276646.080000
   3690   3691     1   0.10969 276646.080000
   3690   3692     1   0.10969 276646.080000
   3693   3694     1   0.10969 276646.080000
   3693   3695     1   0.10969 276646.080000
   3697   3698     1   0.10969 276646.080000
   3697   3699     1   0.10969 276646.080000
   3700   3701     1   0.10969 276646.080000
   3700   3702     1   0.10969 276646.080000
   3705   3706     1   0.09730 310787.520000
   3707   3708     1   0.10969 276646.080000
   3707   3709     1   0.10969 276646.080000
   3710   3711     1   0.10969 276646.080000
   3710   3712     1   0.10969 276646.080000
   3715   3716     1   0.09730 310787.520000
   3718   3719     1   0.10969 276646.080000
   3718   3720     1   0.10969 276646.080000
   3721   3722     1   0.10969 276646.080000
   3721   3723     1   0.10969 276646.080000
   3724   3725     1   0.10969 276646.080000
   3724   3726     1   0.10969 276646.080000
   3728   3729     1   0.10969 276646.080000
   3728   3730     1   0.10969 276646.080000
   3731   3732     1   0.10969 276646.080000
   3731   3733     1   0.10969 276646.080000
   3736   3737     1   0.09730 310787.520000
   3738   3739     1   0.10969 276646.080000
   3738   3740     1   0.10969 276646.080000
   3741   3742     1   0.10969 276646.080000
   3741   3743     1   0.10969 276646.080000
   3746   3747     1   0.09730 310787.520000
   3749   3750     1   0.10969 276646.080000
   3749   3751     1   0.10969 276646.080000
   3752   3753     1   0.10969 276646.080000
   3752   3754     1   0.10969 276646.080000
   3755   3756     1   0.10969 276646.080000
   3755   3757     1   0.10969 276646.080000
   3759   3760     1   0.10969 276646.080000
   3759   3761     1   0.10969 276646.080000
   3762   3763     1   0.10969 276646.080000
   3762   3764     1   0.10969 276646.080000
   3767   3768     1   0.09730 310787.520000
   3769   3770     1   0.10969 276646.080000
   3769   3771     1   0.10969 276646.080000
   3772   3773     1   0.10969 276646.080000
   3772   3774     1   0.10969 276646.080000
   3777   3778     1   0.09730 310787.520000
   3780   3781     1   0.10969 276646.080000
   3780   3782     1   0.10969 276646.080000
   3783   3784     1   0.10969 276646.080000
   3783   3785     1   0.10969 276646.080000
   3786   3787     1   0.10969 276646.080000
   3786   3788     1   0.10969 276646.080000
   3790   3791     1   0.10969 276646.080000
   3790   3792     1   0.10969 276646.080000
   3793   3794     1   0.10969 276646.080000
   3793   3795     1   0.10969 276646.080000
   3798   3799     1   0.09730 310787.520000
   3800   3801     1   0.10969 276646.080000
   3800   3802     1   0.10969 276646.080000
   3803   3804     1   0.10969 276646.080000
   3803   3805     1   0.10969 276646.080000
   3808   3809     1   0.09730 310787.520000
   3811   3812     1   0.10969 276646.080000
   3811   3813     1   0.10969 276646.080000
   3814   3815     1   0.10969 276646.080000
   3814   3816     1   0.10969 276646.080000
   3817   3818     1   0.10969 276646.080000
   3817   3819     1   0.10969 276646.080000
   3821   3822     1   0.10969 276646.080000
   3821   3823     1   0.10969 276646.080000
   3824   3825     1   0.10969 276646.080000
   3824   3826     1   0.10969 276646.080000
   3829   3830     1   0.09730 310787.520000
   3831   3832     1   0.10969 276646.080000
   3831   3833     1   0.10969 276646.080000
   3834   3835     1   0.10969 276646.080000
   3834   3836     1   0.10969 276646.080000
   3839   3840     1   0.09730 310787.520000
   3842   3843     1   0.10969 276646.080000
   3842   3844     1   0.10969 276646.080000
   3845   3846     1   0.10969 276646.080000
   3845   3847     1   0.10969 276646.080000
   3848   3849     1   0.10969 276646.080000
   3848   3850     1   0.10969 276646.080000
   3852   3853     1   0.10969 276646.080000
   3852   3854     1   0.10969 276646.080000
   3855   3856     1   0.10969 276646.080000
   3855   3857     1   0.10969 276646.080000
   3860   3861     1   0.09730 310787.520000
   3862   3863     1   0.10969 276646.080000
   3862   3864     1   0.10969 276646.080000
   3865   3866     1   0.10969 276646.080000
   3865   3867     1   0.10969 276646.080000
   3870   3871     1   0.09730 310787.520000
   3873   3874     1   0.10969 276646.080000
   3873   3875     1   0.10969 276646.080000
   3876   3877     1   0.10969 276646.080000
   3876   3878     1   0.10969 276646.080000
   3879   3880     1   0.10969 276646.080000
   3879   3881     1   0.10969 276646.080000
   3883   3884     1   0.10969 276646.080000
   3883   3885     1   0.10969 276646.080000
   3886   3887     1   0.10969 276646.080000
   3886   3888     1   0.10969 276646.080000
   3891   3892     1   0.09730 310787.520000
   3893   3894     1   0.10969 276646.080000
   3893   3895     1   0.10969 276646.080000
   3896   3897     1   0.10969 276646.080000
   3896   3898     1   0.10969 276646.080000
   3901   3902     1   0.09730 310787.520000
   3904   3905     1   0.10969 276646.080000
   3904   3906     1   0.10969 276646.080000
   3907   3908     1   0.10969 276646.080000
   3907   3909     1   0.10969 276646.080000
   3910   3911     1   0.10969 276646.080000
   3910   3912     1   0.10969 276646.080000
   3914   3915     1   0.10969 276646.080000
   3914   3916     1   0.10969 276646.080000
   3917   3918     1   0.10969 276646.080000
   3917   3919     1   0.10969 276646.080000
   3922   3923     1   0.09730 310787.520000
   3924   3925     1   0.10969 276646.080000
   3924   3926     1   0.10969 276646.080000
   3927   3928     1   0.10969 276646.080000
   3927   3929     1   0.10969 276646.080000
   3932   3933     1   0.09730 310787.520000
   3935   3936     1   0.10969 276646.080000
   3935   3937     1   0.10969 276646.080000
   3938   3939     1   0.10969 276646.080000
   3938   3940     1   0.10969 276646.080000
   3941   3942     1   0.10969 276646.080000
   3941   3943     1   0.10969 276646.080000
   3945   3946     1   0.10969 276646.080000
   3945   3947     1   0.10969 276646.080000
   3948   3949     1   0.10969 276646.080000
   3948   3950     1   0.10969 276646.080000
   3953   3954     1   0.09730 310787.520000
   3955   3956     1   0.10969 276646.080000
   3955   3957     1   0.10969 276646.080000
   3958   3959     1   0.10969 276646.080000
   3958   3960     1   0.10969 276646.080000
   3963   3964     1   0.09730 310787.520000
   3966   3967     1   0.10969 276646.080000
   3966   3968     1   0.10969 276646.080000
   3969   3970     1   0.10969 276646.080000
   3969   3971     1   0.10969 276646.080000
   3972   3973     1   0.10969 276646.080000
   3972   3974     1   0.10969 276646.080000
   3976   3977     1   0.10969 276646.080000
   3976   3978     1   0.10969 276646.080000
   3979   3980     1   0.10969 276646.080000
   3979   3981     1   0.10969 276646.080000
   3984   3985     1   0.09730 310787.520000
   3986   3987     1   0.10969 276646.080000
   3986   3988     1   0.10969 276646.080000
   3989   3990     1   0.10969 276646.080000
   3989   3991     1   0.10969 276646.080000
   3994   3995     1   0.09730 310787.520000
   3997   3998     1   0.10969 276646.080000
   3997   3999     1   0.10969 276646.080000
   4000   4001     1   0.10969 276646.080000
   4000   4002     1   0.10969 276646.080000
   4003   4004     1   0.10969 276646.080000
   4003   4005     1   0.10969 276646.080000
   4007   4008     1   0.10969 276646.080000
   4007   4009     1   0.10969 276646.080000
   4010   4011     1   0.10969 276646.080000
   4010   4012     1   0.10969 276646.080000
   4015   4016     1   0.09730 310787.520000
   4017   4018     1   0.10969 276646.080000
   4017   4019     1   0.10969 276646.080000
   4020   4021     1   0.10969 276646.080000
   4020   4022     1   0.10969 276646.080000
   4025   4026     1   0.09730 310787.520000
   4028   4029     1   0.10969 276646.080000
   4028   4030     1   0.10969 276646.080000
   4031   4032     1   0.10969 276646.080000
   4031   4033     1   0.10969 276646.080000
   4034   4035     1   0.10969 276646.080000
   4034   4036     1   0.10969 276646.080000
   4038   4039     1   0.10969 276646.080000
   4038   4040     1   0.10969 276646.080000
   4041   4042     1   0.10969 276646.080000
   4041   4043     1   0.10969 276646.080000
   4046   4047     1   0.09730 310787.520000
   4048   4049     1   0.10969 276646.080000
   4048   4050     1   0.10969 276646.080000
   4051   4052     1   0.10969 276646.080000
   4051   4053     1   0.10969 276646.080000
   4056   4057     1   0.09730 310787.520000
   4059   4060     1   0.10969 276646.080000
   4059   4061     1   0.10969 276646.080000
   4062   4063     1   0.10969 276646.080000
   4062   4064     1   0.10969 276646.080000
   4065   4066     1   0.10969 276646.080000
   4065   4067     1   0.10969 276646.080000
   4069   4070     1   0.10969 276646.080000
   4069   4071     1   0.10969 276646.080000
   4072   4073     1   0.10969 276646.080000
   4072   4074     1   0.10969 276646.080000
   4077   4078     1   0.09730 310787.520000
   4079   4080     1   0.10969 276646.080000
   4079   4081     1   0.10969 276646.080000
   4082   4083     1   0.10969 276646.080000
   4082   4084     1   0.10969 276646.080000
   4087   4088     1   0.09730 310787.520000
   4090   4091     1   0.10969 276646.080000
   4090   4092     1   0.10969 276646.080000
   4093   4094     1   0.10969 276646.080000
   4093   4095     1   0.10969 276646.080000
   4096   4097     1   0.10969 276646.080000
   4096   4098     1   0.10969 276646.080000
   4100   4101     1   0.10969 276646.080000
   4100   4102     1   0.10969 276646.080000
   4103   4104     1   0.10969 276646.080000
   4103   4105     1   0.10969 276646.080000
   4108   4109     1   0.09730 310787.520000
   4110   4111     1   0.10969 276646.080000
   4110   4112     1   0.10969 276646.080000
   4113   4114     1   0.10969 276646.080000
   4113   4115     1   0.10969 276646.080000
   4118   4119     1   0.09730 310787.520000
   4121   4122     1   0.10969 276646.080000
   4121   4123     1   0.10969 276646.080000
   4124   4125     1   0.10969 276646.080000
   4124   4126     1   0.10969 276646.080000
   4127   4128     1   0.10969 276646.080000
   4127   4129     1   0.10969 276646.080000
   4131   4132     1   0.10969 276646.080000
   4131   4133     1   0.10969 276646.080000
   4134   4135     1   0.10969 276646.080000
   4134   4136     1   0.10969 276646.080000
   4139   4140     1   0.09730 310787.520000
   4141   4142     1   0.10969 276646.080000
   4141   4143     1   0.10969 276646.080000
   4144   4145     1   0.10969 276646.080000
   4144   4146     1   0.10969 276646.080000
   4149   4150     1   0.09730 310787.520000
   4152   4153     1   0.10969 276646.080000
   4152   4154     1   0.10969 276646.080000
   4155   4156     1   0.10969 276646.080000
   4155   4157     1   0.10969 276646.080000
   4158   4159     1   0.10969 276646.080000
   4158   4160     1   0.10969 276646.080000
   4162   4163     1   0.10969 276646.080000
   4162   4164     1   0.10969 276646.080000
   4165   4166     1   0.10969 276646.080000
   4165   4167     1   0.10969 276646.080000
   4170   4171     1   0.09730 310787.520000
   4172   4173     1   0.10969 276646.080000
   4172   4174     1   0.10969 276646.080000
   4175   4176     1   0.10969 276646.080000
   4175   4177     1   0.10969 276646.080000
   4180   4181     1   0.09730 310787.520000
   4183   4184     1   0.10969 276646.080000
   4183   4185     1   0.10969 276646.080000
   4186   4187     1   0.10969 276646.080000
   4186   4188     1   0.10969 276646.080000
   4189   4190     1   0.10969 276646.080000
   4189   4191     1   0.10969 276646.080000
   4193   4194     1   0.10969 276646.080000
   4193   4195     1   0.10969 276646.080000
   4196   4197     1   0.10969 276646.080000
   4196   4198     1   0.10969 276646.080000
   4201   4202     1   0.09730 310787.520000
   4203   4204     1   0.10969 276646.080000
   4203   4205     1   0.10969 276646.080000
   4206   4207     1   0.10969 276646.080000
   4206   4208     1   0.10969 276646.080000
   4211   4212     1   0.09730 310787.520000
   4214   4215     1   0.10969 276646.080000
   4214   4216     1   0.10969 276646.080000
   4217   4218     1   0.10969 276646.080000
   4217   4219     1   0.10969 276646.080000
   4220   4221     1   0.10969 276646.080000
   4220   4222     1   0.10969 276646.080000
   4224   4225     1   0.10969 276646.080000
   4224   4226     1   0.10969 276646.080000
   4227   4228     1   0.10969 276646.080000
   4227   4229     1   0.10969 276646.080000
   4232   4233     1   0.09730 310787.520000
   4234   4235     1   0.10969 276646.080000
   4234   4236     1   0.10969 276646.080000
   4237   4238     1   0.10969 276646.080000
   4237   4239     1   0.10969 276646.080000
   4242   4243     1   0.09730 310787.520000
   4245   4246     1   0.10969 276646.080000
   4245   4247     1   0.10969 276646.080000
   4248   4249     1   0.10969 276646.080000
   4248   4250     1   0.10969 276646.080000
   4251   4252     1   0.10969 276646.080000
   4251   4253     1   0.10969 276646.080000
   4255   4256     1   0.10969 276646.080000
   4255   4257     1   0.10969 276646.080000
   4258   4259     1   0.10969 276646.080000
   4258   4260     1   0.10969 276646.080000
   4263   4264     1   0.09730 310787.520000
   4265   4266     1   0.10969 276646.080000
   4265   4267     1   0.10969 276646.080000
   4268   4269     1   0.10969 276646.080000
   4268   4270     1   0.10969 276646.080000
   4273   4274     1   0.09730 310787.520000
   4276   4277     1   0.10969 276646.080000
   4276   4278     1   0.10969 276646.080000
   4279   4280     1   0.10969 276646.080000
   4279   4281     1   0.10969 276646.080000
   4282   4283     1   0.10969 276646.080000
   4282   4284     1   0.10969 276646.080000
   4286   4287     1   0.10969 276646.080000
   4286   4288     1   0.10969 276646.080000
   4289   4290     1   0.10969 276646.080000
   4289   4291     1   0.10969 276646.080000
   4294   4295     1   0.09730 310787.520000
   4296   4297     1   0.10969 276646.080000
   4296   4298     1   0.10969 276646.080000
   4299   4300     1   0.10969 276646.080000
   4299   4301     1   0.10969 276646.080000
   4304   4305     1   0.09730 310787.520000
   4307   4308     1   0.10969 276646.080000
   4307   4309     1   0.10969 276646.080000
   4310   4311     1   0.10969 276646.080000
   4310   4312     1   0.10969 276646.080000
   4313   4314     1   0.10969 276646.080000
   4313   4315     1   0.10969 276646.080000
   4317   4318     1   0.10969 276646.080000
   4317   4319     1   0.10969 276646.080000
   4320   4321     1   0.10969 276646.080000
   4320   4322     1   0.10969 276646.080000
   4325   4326     1   0.09730 310787.520000
   4327   4328     1   0.10969 276646.080000
   4327   4329     1   0.10969 276646.080000
   4330   4331     1   0.10969 276646.080000
   4330   4332     1   0.10969 276646.080000
   4335   4336     1   0.09730 310787.520000
   4338   4339     1   0.10969 276646.080000
   4338   4340     1   0.10969 276646.080000
   4341   4342     1   0.10969 276646.080000
   4341   4343     1   0.10969 276646.080000
   4344   4345     1   0.10969 276646.080000
   4344   4346     1   0.10969 276646.080000
   4348   4349     1   0.10969 276646.080000
   4348   4350     1   0.10969 276646.080000
   4351   4352     1   0.10969 276646.080000
   4351   4353     1   0.10969 276646.080000
   4356   4357     1   0.09730 310787.520000
   4358   4359     1   0.10969 276646.080000
   4358   4360     1   0.10969 276646.080000
   4361   4362     1   0.10969 276646.080000
   4361   4363     1   0.10969 276646.080000
   4366   4367     1   0.09730 310787.520000
   4369   4370     1   0.10969 276646.080000
   4369   4371     1   0.10969 276646.080000
   4372   4373     1   0.10969 276646.080000
   4372   4374     1   0.10969 276646.080000
   4375   4376     1   0.10969 276646.080000
   4375   4377     1   0.10969 276646.080000
   4379   4380     1   0.10969 276646.080000
   4379   4381     1   0.10969 276646.080000
   4382   4383     1   0.10969 276646.080000
   4382   4384     1   0.10969 276646.080000
   4387   4388     1   0.09730 310787.520000
   4389   4390     1   0.10969 276646.080000
   4389   4391     1   0.10969 276646.080000
   4392   4393     1   0.10969 276646.080000
   4392   4394     1   0.10969 276646.080000
   4397   4398     1   0.09730 310787.520000
   4400   4401     1   0.10969 276646.080000
   4400   4402     1   0.10969 276646.080000
   4403   4404     1   0.10969 276646.080000
   4403   4405     1   0.10969 276646.080000
   4406   4407     1   0.10969 276646.080000
   4406   4408     1   0.10969 276646.080000
   4410   4411     1   0.10969 276646.080000
   4410   4412     1   0.10969 276646.080000
   4413   4414     1   0.10969 276646.080000
   4413   4415     1   0.10969 276646.080000
   4418   4419     1   0.09730 310787.520000
   4420   4421     1   0.10969 276646.080000
   4420   4422     1   0.10969 276646.080000
   4423   4424     1   0.10969 276646.080000
   4423   4425     1   0.10969 276646.080000
   4428   4429     1   0.09730 310787.520000
   4431   4432     1   0.10969 276646.080000
   4431   4433     1   0.10969 276646.080000
   4434   4435     1   0.10969 276646.080000
   4434   4436     1   0.10969 276646.080000
   4437   4438     1   0.10969 276646.080000
   4437   4439     1   0.10969 276646.080000
   4441   4442     1   0.10969 276646.080000
   4441   4443     1   0.10969 276646.080000
   4444   4445     1   0.10969 276646.080000
   4444   4446     1   0.10969 276646.080000
   4449   4450     1   0.09730 310787.520000
   4451   4452     1   0.10969 276646.080000
   4451   4453     1   0.10969 276646.080000
   4454   4455     1   0.10969 276646.080000
   4454   4456     1   0.10969 276646.080000
   4459   4460     1   0.09730 310787.520000
   4462   4463     1   0.10969 276646.080000
   4462   4464     1   0.10969 276646.080000
   4465   4466     1   0.10969 276646.080000
   4465   4467     1   0.10969 276646.080000
   4468   4469     1   0.10969 276646.080000
   4468   4470     1   0.10969 276646.080000
   4472   4473     1   0.10969 276646.080000
   4472   4474     1   0.10969 276646.080000
   4475   4476     1   0.10969 276646.080000
   4475   4477     1   0.10969 276646.080000
   4480   4481     1   0.09730 310787.520000
   4482   4483     1   0.10969 276646.080000
   4482   4484     1   0.10969 276646.080000
   4485   4486     1   0.10969 276646.080000
   4485   4487     1   0.10969 276646.080000
   4490   4491     1   0.09730 310787.520000
   4493   4494     1   0.10969 276646.080000
   4493   4495     1   0.10969 276646.080000
   4496   4497     1   0.10969 276646.080000
   4496   4498     1   0.10969 276646.080000
   4499   4500     1   0.10969 276646.080000
   4499   4501     1   0.10969 276646.080000
   4503   4504     1   0.10969 276646.080000
   4503   4505     1   0.10969 276646.080000
   4506   4507     1   0.10969 276646.080000
   4506   4508     1   0.10969 276646.080000
   4511   4512     1   0.09730 310787.520000
   4513   4514     1   0.10969 276646.080000
   4513   4515     1   0.10969 276646.080000
   4516   4517     1   0.10969 276646.080000
   4516   4518     1   0.10969 276646.080000
   4521   4522     1   0.09730 310787.520000
   4524   4525     1   0.10969 276646.080000
   4524   4526     1   0.10969 276646.080000
   4527   4528     1   0.10969 276646.080000
   4527   4529     1   0.10969 276646.080000
   4530   4531     1   0.10969 276646.080000
   4530   4532     1   0.10969 276646.080000
   4534   4535     1   0.10969 276646.080000
   4534   4536     1   0.10969 276646.080000
   4537   4538     1   0.10969 276646.080000
   4537   4539     1   0.10969 276646.080000
   4542   4543     1   0.09730 310787.520000
   4544   4545     1   0.10969 276646.080000
   4544   4546     1   0.10969 276646.080000
   4547   4548     1   0.10969 276646.080000
   4547   4549     1   0.10969 276646.080000
   4552   4553     1   0.09730 310787.520000
   4555   4556     1   0.10969 276646.080000
   4555   4557     1   0.10969 276646.080000
   4558   4559     1   0.10969 276646.080000
   4558   4560     1   0.10969 276646.080000
   4561   4562     1   0.10969 276646.080000
   4561   4563     1   0.10969 276646.080000
   4565   4566     1   0.10969 276646.080000
   4565   4567     1   0.10969 276646.080000
   4568   4569     1   0.10969 276646.080000
   4568   4570     1   0.10969 276646.080000
   4573   4574     1   0.09730 310787.520000
   4575   4576     1   0.10969 276646.080000
   4575   4577     1   0.10969 276646.080000
   4578   4579     1   0.10969 276646.080000
   4578   4580     1   0.10969 276646.080000
   4583   4584     1   0.09730 310787.520000
   4586   4587     1   0.10969 276646.080000
   4586   4588     1   0.10969 276646.080000
   4589   4590     1   0.10969 276646.080000
   4589   4591     1   0.10969 276646.080000
   4592   4593     1   0.10969 276646.080000
   4592   4594     1   0.10969 276646.080000
   4596   4597     1   0.10969 276646.080000
   4596   4598     1   0.10969 276646.080000
   4599   4600     1   0.10969 276646.080000
   4599   4601     1   0.10969 276646.080000
   4604   4605     1   0.09730 310787.520000
   4606   4607     1   0.10969 276646.080000
   4606   4608     1   0.10969 276646.080000
   4609   4610     1   0.10969 276646.080000
   4609   4611     1   0.10969 276646.080000
   4614   4615     1   0.09730 310787.520000
   4617   4618     1   0.10969 276646.080000
   4617   4619     1   0.10969 276646.080000
   4620   4621     1   0.10969 276646.080000
   4620   4622     1   0.10969 276646.080000
   4623   4624     1   0.10969 276646.080000
   4623   4625     1   0.10969 276646.080000
   4627   4628     1   0.10969 276646.080000
   4627   4629     1   0.10969 276646.080000
   4630   4631     1   0.10969 276646.080000
   4630   4632     1   0.10969 276646.080000
   4635   4636     1   0.09730 310787.520000
   4637   4638     1   0.10969 276646.080000
   4637   4639     1   0.10969 276646.080000
   4640   4641     1   0.10969 276646.080000
   4640   4642     1   0.10969 276646.080000
   4645   4646     1   0.09730 310787.520000
   4648   4649     1   0.10969 276646.080000
   4648   4650     1   0.10969 276646.080000
   4651   4652     1   0.10969 276646.080000
   4651   4653     1   0.10969 276646.080000
   4654   4655     1   0.10969 276646.080000
   4654   4656     1   0.10969 276646.080000
   4658   4659     1   0.10969 276646.080000
   4658   4660     1   0.10969 276646.080000
   4661   4662     1   0.10969 276646.080000
   4661   4663     1   0.10969 276646.080000
   4666   4667     1   0.09730 310787.520000
   4668   4669     1   0.10969 276646.080000
   4668   4670     1   0.10969 276646.080000
   4671   4672     1   0.10969 276646.080000
   4671   4673     1   0.10969 276646.080000
   4676   4677     1   0.09730 310787.520000
   4679   4680     1   0.10969 276646.080000
   4679   4681     1   0.10969 276646.080000
   4682   4683     1   0.10969 276646.080000
   4682   4684     1   0.10969 276646.080000
   4685   4686     1   0.10969 276646.080000
   4685   4687     1   0.10969 276646.080000
   4689   4690     1   0.10969 276646.080000
   4689   4691     1   0.10969 276646.080000
   4692   4693     1   0.10969 276646.080000
   4692   4694     1   0.10969 276646.080000
   4697   4698     1   0.09730 310787.520000
   4699   4700     1   0.10969 276646.080000
   4699   4701     1   0.10969 276646.080000
   4702   4703     1   0.10969 276646.080000
   4702   4704     1   0.10969 276646.080000
   4707   4708     1   0.09730 310787.520000
   4710   4711     1   0.10969 276646.080000
   4710   4712     1   0.10969 276646.080000
   4713   4714     1   0.10969 276646.080000
   4713   4715     1   0.10969 276646.080000
   4716   4717     1   0.10969 276646.080000
   4716   4718     1   0.10969 276646.080000
   4720   4721     1   0.10969 276646.080000
   4720   4722     1   0.10969 276646.080000
   4723   4724     1   0.10969 276646.080000
   4723   4725     1   0.10969 276646.080000
   4728   4729     1   0.09730 310787.520000
   4730   4731     1   0.10969 276646.080000
   4730   4732     1   0.10969 276646.080000
   4733   4734     1   0.10969 276646.080000
   4733   4735     1   0.10969 276646.080000
   4738   4739     1   0.09730 310787.520000
   4741   4742     1   0.10969 276646.080000
   4741   4743     1   0.10969 276646.080000
   4744   4745     1   0.10969 276646.080000
   4744   4746     1   0.10969 276646.080000
   4747   4748     1   0.10969 276646.080000
   4747   4749     1   0.10969 276646.080000
   4751   4752     1   0.10969 276646.080000
   4751   4753     1   0.10969 276646.080000
   4754   4755     1   0.10969 276646.080000
   4754   4756     1   0.10969 276646.080000
   4759   4760     1   0.09730 310787.520000
   4761   4762     1   0.10969 276646.080000
   4761   4763     1   0.10969 276646.080000
   4764   4765     1   0.10969 276646.080000
   4764   4766     1   0.10969 276646.080000
   4769   4770     1   0.09730 310787.520000
   4772   4773     1   0.10969 276646.080000
   4772   4774     1   0.10969 276646.080000
   4775   4776     1   0.10969 276646.080000
   4775   4777     1   0.10969 276646.080000
   4778   4779     1   0.10969 276646.080000
   4778   4780     1   0.10969 276646.080000
   4782   4783     1   0.10969 276646.080000
   4782   4784     1   0.10969 276646.080000
   4785   4786     1   0.10969 276646.080000
   4785   4787     1   0.10969 276646.080000
   4790   4791     1   0.09730 310787.520000
   4792   4793     1   0.10969 276646.080000
   4792   4794     1   0.10969 276646.080000
   4795   4796     1   0.10969 276646.080000
   4795   4797     1   0.10969 276646.080000
   4800   4801     1   0.09730 310787.520000
   4803   4804     1   0.10969 276646.080000
   4803   4805     1   0.10969 276646.080000
   4806   4807     1   0.10969 276646.080000
   4806   4808     1   0.10969 276646.080000
   4809   4810     1   0.10969 276646.080000
   4809   4811     1   0.10969 276646.080000
   4813   4814     1   0.10969 276646.080000
   4813   4815     1   0.10969 276646.080000
   4816   4817     1   0.10969 276646.080000
   4816   4818     1   0.10969 276646.080000
   4821   4822     1   0.09730 310787.520000
   4823   4824     1   0.10969 276646.080000
   4823   4825     1   0.10969 276646.080000
   4826   4827     1   0.10969 276646.080000
   4826   4828     1   0.10969 276646.080000
   4831   4832     1   0.09730 310787.520000
   4834   4835     1   0.10969 276646.080000
   4834   4836     1   0.10969 276646.080000
   4837   4838     1   0.10969 276646.080000
   4837   4839     1   0.10969 276646.080000
   4840   4841     1   0.10969 276646.080000
   4840   4842     1   0.10969 276646.080000
   4844   4845     1   0.10969 276646.080000
   4844   4846     1   0.10969 276646.080000
   4847   4848     1   0.10969 276646.080000
   4847   4849     1   0.10969 276646.080000
   4852   4853     1   0.09730 310787.520000
   4854   4855     1   0.10969 276646.080000
   4854   4856     1   0.10969 276646.080000
   4857   4858     1   0.10969 276646.080000
   4857   4859     1   0.10969 276646.080000
   4862   4863     1   0.09730 310787.520000
   4865   4866     1   0.10969 276646.080000
   4865   4867     1   0.10969 276646.080000
   4868   4869     1   0.10969 276646.080000
   4868   4870     1   0.10969 276646.080000
   4871   4872     1   0.10969 276646.080000
   4871   4873     1   0.10969 276646.080000
   4875   4876     1   0.10969 276646.080000
   4875   4877     1   0.10969 276646.080000
   4878   4879     1   0.10969 276646.080000
   4878   4880     1   0.10969 276646.080000
   4883   4884     1   0.09730 310787.520000
   4885   4886     1   0.10969 276646.080000
   4885   4887     1   0.10969 276646.080000
   4888   4889     1   0.10969 276646.080000
   4888   4890     1   0.10969 276646.080000
   4893   4894     1   0.09730 310787.520000
   4896   4897     1   0.10969 276646.080000
   4896   4898     1   0.10969 276646.080000
   4899   4900     1   0.10969 276646.080000
   4899   4901     1   0.10969 276646.080000
   4902   4903     1   0.10969 276646.080000
   4902   4904     1   0.10969 276646.080000
   4906   4907     1   0.10969 276646.080000
   4906   4908     1   0.10969 276646.080000
   4909   4910     1   0.10969 276646.080000
   4909   4911     1   0.10969 276646.080000
   4914   4915     1   0.09730 310787.520000
   4916   4917     1   0.10969 276646.080000
   4916   4918     1   0.10969 276646.080000
   4919   4920     1   0.10969 276646.080000
   4919   4921     1   0.10969 276646.080000
   4924   4925     1   0.09730 310787.520000
   4927   4928     1   0.10969 276646.080000
   4927   4929     1   0.10969 276646.080000
   4930   4931     1   0.10969 276646.080000
   4930   4932     1   0.10969 276646.080000
   4933   4934     1   0.10969 276646.080000
   4933   4935     1   0.10969 276646.080000
   4937   4938     1   0.10969 276646.080000
   4937   4939     1   0.10969 276646.080000
   4940   4941     1   0.10969 276646.080000
   4940   4942     1   0.10969 276646.080000
   4945   4946     1   0.09730 310787.520000
   4947   4948     1   0.10969 276646.080000
   4947   4949     1   0.10969 276646.080000
   4950   4951     1   0.10969 276646.080000
   4950   4952     1   0.10969 276646.080000
   4955   4956     1   0.09730 310787.520000
   4958   4959     1   0.10969 276646.080000
   4958   4960     1   0.10969 276646.080000
   4961   4962     1   0.10969 276646.080000
   4961   4963     1   0.10969 276646.080000
   4964   4965     1   0.10969 276646.080000
   4964   4966     1   0.10969 276646.080000
   4968   4969     1   0.10969 276646.080000
   4968   4970     1   0.10969 276646.080000
   4971   4972     1   0.10969 276646.080000
   4971   4973     1   0.10969 276646.080000
   4976   4977     1   0.09730 310787.520000
   4978   4979     1   0.10969 276646.080000
   4978   4980     1   0.10969 276646.080000
   4981   4982     1   0.10969 276646.080000
   4981   4983     1   0.10969 276646.080000
   4986   4987     1   0.09730 310787.520000
   4989   4990     1   0.10969 276646.080000
   4989   4991     1   0.10969 276646.080000
   4992   4993     1   0.10969 276646.080000
   4992   4994     1   0.10969 276646.080000
   4995   4996     1   0.10969 276646.080000
   4995   4997     1   0.10969 276646.080000
   4999   5000     1   0.10969 276646.080000
   4999   5001     1   0.10969 276646.080000
   5002   5003     1   0.10969 276646.080000
   5002   5004     1   0.10969 276646.080000
   5007   5008     1   0.09730 310787.520000
   5009   5010     1   0.10969 276646.080000
   5009   5011     1   0.10969 276646.080000
   5012   5013     1   0.10969 276646.080000
   5012   5014     1   0.10969 276646.080000
   5017   5018     1   0.09730 310787.520000
   5020   5021     1   0.10969 276646.080000
   5020   5022     1   0.10969 276646.080000
   5023   5024     1   0.10969 276646.080000
   5023   5025     1   0.10969 276646.080000
   5026   5027     1   0.10969 276646.080000
   5026   5028     1   0.10969 276646.080000
   5030   5031     1   0.10969 276646.080000
   5030   5032     1   0.10969 276646.080000
   5033   5034     1   0.10969 276646.080000
   5033   5035     1   0.10969 276646.080000
   5038   5039     1   0.09730 310787.520000
   5040   5041     1   0.10969 276646.080000
   5040   5042     1   0.10969 276646.080000
   5043   5044     1   0.10969 276646.080000
   5043   5045     1   0.10969 276646.080000
   5048   5049     1   0.09730 310787.520000
   5051   5052     1   0.10969 276646.080000
   5051   5053     1   0.10969 276646.080000
   5054   5055     1   0.10969 276646.080000
   5054   5056     1   0.10969 276646.080000
   5057   5058     1   0.10969 276646.080000
   5057   5059     1   0.10969 276646.080000
   5061   5062     1   0.10969 276646.080000
   5061   5063     1   0.10969 276646.080000
   5064   5065     1   0.10969 276646.080000
   5064   5066     1   0.10969 276646.080000
   5069   5070     1   0.09730 310787.520000
   5071   5072     1   0.10969 276646.080000
   5071   5073     1   0.10969 276646.080000
   5074   5075     1   0.10969 276646.080000
   5074   5076     1   0.10969 276646.080000
   5079   5080     1   0.09730 310787.520000
   5082   5083     1   0.10969 276646.080000
   5082   5084     1   0.10969 276646.080000
   5085   5086     1   0.10969 276646.080000
   5085   5087     1   0.10969 276646.080000
   5088   5089     1   0.10969 276646.080000
   5088   5090     1   0.10969 276646.080000
   5092   5093     1   0.10969 276646.080000
   5092   5094     1   0.10969 276646.080000
   5095   5096     1   0.10969 276646.080000
   5095   5097     1   0.10969 276646.080000
   5100   5101     1   0.09730 310787.520000
   5102   5103     1   0.10969 276646.080000
   5102   5104     1   0.10969 276646.080000
   5105   5106     1   0.10969 276646.080000
   5105   5107     1   0.10969 276646.080000
   5110   5111     1   0.09730 310787.520000
   5113   5114     1   0.10969 276646.080000
   5113   5115     1   0.10969 276646.080000
   5116   5117     1   0.10969 276646.080000
   5116   5118     1   0.10969 276646.080000
   5119   5120     1   0.10969 276646.080000
   5119   5121     1   0.10969 276646.080000
   5123   5124     1   0.10969 276646.080000
   5123   5125     1   0.10969 276646.080000
   5126   5127     1   0.10969 276646.080000
   5126   5128     1   0.10969 276646.080000
   5131   5132     1   0.09730 310787.520000
   5133   5134     1   0.10969 276646.080000
   5133   5135     1   0.10969 276646.080000
   5136   5137     1   0.10969 276646.080000
   5136   5138     1   0.10969 276646.080000
   5141   5142     1   0.09730 310787.520000
   5144   5145     1   0.10969 276646.080000
   5144   5146     1   0.10969 276646.080000
   5147   5148     1   0.10969 276646.080000
   5147   5149     1   0.10969 276646.080000
   5150   5151     1   0.10969 276646.080000
   5150   5152     1   0.10969 276646.080000
   5154   5155     1   0.10969 276646.080000
   5154   5156     1   0.10969 276646.080000
   5157   5158     1   0.10969 276646.080000
   5157   5159     1   0.10969 276646.080000
   5162   5163     1   0.09730 310787.520000
   5164   5165     1   0.10969 276646.080000
   5164   5166     1   0.10969 276646.080000
   5167   5168     1   0.10969 276646.080000
   5167   5169     1   0.10969 276646.080000
   5172   5173     1   0.09730 310787.520000
   5175   5176     1   0.10969 276646.080000
   5175   5177     1   0.10969 276646.080000
   5178   5179     1   0.10969 276646.080000
   5178   5180     1   0.10969 276646.080000
   5181   5182     1   0.10969 276646.080000
   5181   5183     1   0.10969 276646.080000
   5185   5186     1   0.10969 276646.080000
   5185   5187     1   0.10969 276646.080000
   5188   5189     1   0.10969 276646.080000
   5188   5190     1   0.10969 276646.080000
   5193   5194     1   0.09730 310787.520000
   5195   5196     1   0.10969 276646.080000
   5195   5197     1   0.10969 276646.080000
   5198   5199     1   0.10969 276646.080000
   5198   5200     1   0.10969 276646.080000
   5203   5204     1   0.09730 310787.520000
   5206   5207     1   0.10969 276646.080000
   5206   5208     1   0.10969 276646.080000
   5209   5210     1   0.10969 276646.080000
   5209   5211     1   0.10969 276646.080000
   5212   5213     1   0.10969 276646.080000
   5212   5214     1   0.10969 276646.080000
   5216   5217     1   0.10969 276646.080000
   5216   5218     1   0.10969 276646.080000
   5219   5220     1   0.10969 276646.080000
   5219   5221     1   0.10969 276646.080000
   5224   5225     1   0.09730 310787.520000
   5226   5227     1   0.10969 276646.080000
   5226   5228     1   0.10969 276646.080000
   5229   5230     1   0.10969 276646.080000
   5229   5231     1   0.10969 276646.080000
   5234   5235     1   0.09730 310787.520000
   5237   5238     1   0.10969 276646.080000
   5237   5239     1   0.10969 276646.080000
   5240   5241     1   0.10969 276646.080000
   5240   5242     1   0.10969 276646.080000
   5243   5244     1   0.10969 276646.080000
   5243   5245     1   0.10969 276646.080000
   5247   5248     1   0.10969 276646.080000
   5247   5249     1   0.10969 276646.080000
   5250   5251     1   0.10969 276646.080000
   5250   5252     1   0.10969 276646.080000
   5255   5256     1   0.09730 310787.520000
   5257   5258     1   0.10969 276646.080000
   5257   5259     1   0.10969 276646.080000
   5260   5261     1   0.10969 276646.080000
   5260   5262     1   0.10969 276646.080000
   5265   5266     1   0.09730 310787.520000
   5268   5269     1   0.10969 276646.080000
   5268   5270     1   0.10969 276646.080000
   5271   5272     1   0.10969 276646.080000
   5271   5273     1   0.10969 276646.080000
   5274   5275     1   0.10969 276646.080000
   5274   5276     1   0.10969 276646.080000
   5278   5279     1   0.10969 276646.080000
   5278   5280     1   0.10969 276646.080000
   5281   5282     1   0.10969 276646.080000
   5281   5283     1   0.10969 276646.080000
   5286   5287     1   0.09730 310787.520000
   5288   5289     1   0.10969 276646.080000
   5288   5290     1   0.10969 276646.080000
   5291   5292     1   0.10969 276646.080000
   5291   5293     1   0.10969 276646.080000
   5296   5297     1   0.09730 310787.520000
   5299   5300     1   0.10969 276646.080000
   5299   5301     1   0.10969 276646.080000
   5302   5303     1   0.10969 276646.080000
   5302   5304     1   0.10969 276646.080000
   5305   5306     1   0.10969 276646.080000
   5305   5307     1   0.10969 276646.080000
   5309   5310     1   0.10969 276646.080000
   5309   5311     1   0.10969 276646.080000
   5312   5313     1   0.10969 276646.080000
   5312   5314     1   0.10969 276646.080000
   5317   5318     1   0.09730 310787.520000
   5319   5320     1   0.10969 276646.080000
   5319   5321     1   0.10969 276646.080000
   5322   5323     1   0.10969 276646.080000
   5322   5324     1   0.10969 276646.080000
   5327   5328     1   0.09730 310787.520000
   5330   5331     1   0.10969 276646.080000
   5330   5332     1   0.10969 276646.080000
   5333   5334     1   0.10969 276646.080000
   5333   5335     1   0.10969 276646.080000
   5336   5337     1   0.10969 276646.080000
   5336   5338     1   0.10969 276646.080000
   5340   5341     1   0.10969 276646.080000
   5340   5342     1   0.10969 276646.080000
   5343   5344     1   0.10969 276646.080000
   5343   5345     1   0.10969 276646.080000
   5348   5349     1   0.09730 310787.520000
   5350   5351     1   0.10969 276646.080000
   5350   5352     1   0.10969 276646.080000
   5353   5354     1   0.10969 276646.080000
   5353   5355     1   0.10969 276646.080000
   5358   5359     1   0.09730 310787.520000
   5361   5362     1   0.10969 276646.080000
   5361   5363     1   0.10969 276646.080000
   5364   5365     1   0.10969 276646.080000
   5364   5366     1   0.10969 276646.080000
   5367   5368     1   0.10969 276646.080000
   5367   5369     1   0.10969 276646.080000
   5371   5372     1   0.10969 276646.080000
   5371   5373     1   0.10969 276646.080000
   5374   5375     1   0.10969 276646.080000
   5374   5376     1   0.10969 276646.080000
   5379   5380     1   0.09730 310787.520000
   5381   5382     1   0.10969 276646.080000
   5381   5383     1   0.10969 276646.080000
   5384   5385     1   0.10969 276646.080000
   5384   5386     1   0.10969 276646.080000
   5389   5390     1   0.09730 310787.520000
   5392   5393     1   0.10969 276646.080000
   5392   5394     1   0.10969 276646.080000
   5395   5396     1   0.10969 276646.080000
   5395   5397     1   0.10969 276646.080000
   5398   5399     1   0.10969 276646.080000
   5398   5400     1   0.10969 276646.080000
   5402   5403     1   0.10969 276646.080000
   5402   5404     1   0.10969 276646.080000
   5405   5406     1   0.10969 276646.080000
   5405   5407     1   0.10969 276646.080000
   5410   5411     1   0.09730 310787.520000
   5412   5413     1   0.10969 276646.080000
   5412   5414     1   0.10969 276646.080000
   5415   5416     1   0.10969 276646.080000
   5415   5417     1   0.10969 276646.080000
   5420   5421     1   0.09730 310787.520000
   5423   5424     1   0.10969 276646.080000
   5423   5425     1   0.10969 276646.080000
   5426   5427     1   0.10969 276646.080000
   5426   5428     1   0.10969 276646.080000
   5429   5430     1   0.10969 276646.080000
   5429   5431     1   0.10969 276646.080000
   5433   5434     1   0.10969 276646.080000
   5433   5435     1   0.10969 276646.080000
   5436   5437     1   0.10969 276646.080000
   5436   5438     1   0.10969 276646.080000
   5441   5442     1   0.09730 310787.520000
   5443   5444     1   0.10969 276646.080000
   5443   5445     1   0.10969 276646.080000
   5446   5447     1   0.10969 276646.080000
   5446   5448     1   0.10969 276646.080000
   5451   5452     1   0.09730 310787.520000
   5454   5455     1   0.10969 276646.080000
   5454   5456     1   0.10969 276646.080000
   5457   5458     1   0.10969 276646.080000
   5457   5459     1   0.10969 276646.080000
   5460   5461     1   0.10969 276646.080000
   5460   5462     1   0.10969 276646.080000
   5464   5465     1   0.10969 276646.080000
   5464   5466     1   0.10969 276646.080000
   5467   5468     1   0.10969 276646.080000
   5467   5469     1   0.10969 276646.080000
   5472   5473     1   0.09730 310787.520000
   5474   5475     1   0.10969 276646.080000
   5474   5476     1   0.10969 276646.080000
   5477   5478     1   0.10969 276646.080000
   5477   5479     1   0.10969 276646.080000
   5482   5483     1   0.09730 310787.520000
   5485   5486     1   0.10969 276646.080000
   5485   5487     1   0.10969 276646.080000
   5488   5489     1   0.10969 276646.080000
   5488   5490     1   0.10969 276646.080000
   5491   5492     1   0.10969 276646.080000
   5491   5493     1   0.10969 276646.080000
   5495   5496     1   0.10969 276646.080000
   5495   5497     1   0.10969 276646.080000
   5498   5499     1   0.10969 276646.080000
   5498   5500     1   0.10969 276646.080000
   5503   5504     1   0.09730 310787.520000
   5505   5506     1   0.10969 276646.080000
   5505   5507     1   0.10969 276646.080000
   5508   5509     1   0.10969 276646.080000
   5508   5510     1   0.10969 276646.080000
   5513   5514     1   0.09730 310787.520000
   5516   5517     1   0.10969 276646.080000
   5516   5518     1   0.10969 276646.080000
   5519   5520     1   0.10969 276646.080000
   5519   5521     1   0.10969 276646.080000
   5522   5523     1   0.10969 276646.080000
   5522   5524     1   0.10969 276646.080000
   5526   5527     1   0.10969 276646.080000
   5526   5528     1   0.10969 276646.080000
   5529   5530     1   0.10969 276646.080000
   5529   5531     1   0.10969 276646.080000
   5534   5535     1   0.09730 310787.520000
   5536   5537     1   0.10969 276646.080000
   5536   5538     1   0.10969 276646.080000
   5539   5540     1   0.10969 276646.080000
   5539   5541     1   0.10969 276646.080000
   5544   5545     1   0.09730 310787.520000
   5547   5548     1   0.10969 276646.080000
   5547   5549     1   0.10969 276646.080000
   5550   5551     1   0.10969 276646.080000
   5550   5552     1   0.10969 276646.080000
   5553   5554     1   0.10969 276646.080000
   5553   5555     1   0.10969 276646.080000
   5557   5558     1   0.10969 276646.080000
   5557   5559     1   0.10969 276646.080000
   5560   5561     1   0.10969 276646.080000
   5560   5562     1   0.10969 276646.080000
   5565   5566     1   0.09730 310787.520000
   5567   5568     1   0.10969 276646.080000
   5567   5569     1   0.10969 276646.080000
   5570   5571     1   0.10969 276646.080000
   5570   5572     1   0.10969 276646.080000
   5575   5576     1   0.09730 310787.520000
   5578   5579     1   0.10969 276646.080000
   5578   5580     1   0.10969 276646.080000
   5581   5582     1   0.10969 276646.080000
   5581   5583     1   0.10969 276646.080000
   5584   5585     1   0.10969 276646.080000
   5584   5586     1   0.10969 276646.080000
   5588   5589     1   0.10969 276646.080000
   5588   5590     1   0.10969 276646.080000
   5591   5592     1   0.10969 276646.080000
   5591   5593     1   0.10969 276646.080000
   5596   5597     1   0.09730 310787.520000
   5598   5599     1   0.10969 276646.080000
   5598   5600     1   0.10969 276646.080000
   5601   5602     1   0.10969 276646.080000
   5601   5603     1   0.10969 276646.080000
   5606   5607     1   0.09730 310787.520000
   5609   5610     1   0.10969 276646.080000
   5609   5611     1   0.10969 276646.080000
   5612   5613     1   0.10969 276646.080000
   5612   5614     1   0.10969 276646.080000
   5615   5616     1   0.10969 276646.080000
   5615   5617     1   0.10969 276646.080000
   5619   5620     1   0.10969 276646.080000
   5619   5621     1   0.10969 276646.080000
   5622   5623     1   0.10969 276646.080000
   5622   5624     1   0.10969 276646.080000
   5627   5628     1   0.09730 310787.520000
   5629   5630     1   0.10969 276646.080000
   5629   5631     1   0.10969 276646.080000
   5632   5633     1   0.10969 276646.080000
   5632   5634     1   0.10969 276646.080000
   5637   5638     1   0.09730 310787.520000
   5640   5641     1   0.10969 276646.080000
   5640   5642     1   0.10969 276646.080000
   5643   5644     1   0.10969 276646.080000
   5643   5645     1   0.10969 276646.080000
   5646   5647     1   0.10969 276646.080000
   5646   5648     1   0.10969 276646.080000
   5650   5651     1   0.10969 276646.080000
   5650   5652     1   0.10969 276646.080000
   5653   5654     1   0.10969 276646.080000
   5653   5655     1   0.10969 276646.080000
   5658   5659     1   0.09730 310787.520000
   5660   5661     1   0.10969 276646.080000
   5660   5662     1   0.10969 276646.080000
   5663   5664     1   0.10969 276646.080000
   5663   5665     1   0.10969 276646.080000
   5668   5669     1   0.09730 310787.520000
   5671   5672     1   0.10969 276646.080000
   5671   5673     1   0.10969 276646.080000
   5674   5675     1   0.10969 276646.080000
   5674   5676     1   0.10969 276646.080000
   5677   5678     1   0.10969 276646.080000
   5677   5679     1   0.10969 276646.080000
   5681   5682     1   0.10969 276646.080000
   5681   5683     1   0.10969 276646.080000
   5684   5685     1   0.10969 276646.080000
   5684   5686     1   0.10969 276646.080000
   5689   5690     1   0.09730 310787.520000
   5691   5692     1   0.10969 276646.080000
   5691   5693     1   0.10969 276646.080000
   5694   5695     1   0.10969 276646.080000
   5694   5696     1   0.10969 276646.080000
   5699   5700     1   0.09730 310787.520000

[ pairs ]
;    ai     aj funct         c0         c1         c2         c3
      1     26     1
      1     20     1
      1     23     1
      2     17     1
      2     11     1
      2    115     1
      5     14     1
      5     11     1
      5     57     1
      8     14     1
      8     17     1
      8     86     1
     11     77     1
     14    106     1
     17     48     1
     20     39     1
     23     68     1
     26     97     1
     29     54     1
     29     51     1
     29     48     1
     30     45     1
     30     39     1
     30    173     1
     33     42     1
     33     39     1
     33    144     1
     36     42     1
     36     45     1
     36     57     1
     42    164     1
     45    135     1
     51    126     1
     54    155     1
     58     83     1
     58     80     1
     58     77     1
     59     74     1
     59     68     1
     59    231     1
     62     71     1
     62     68     1
     62    202     1
     65     71     1
     65     74     1
     65     86     1
     71    222     1
     74    193     1
     80    184     1
     83    213     1
     87    112     1
     87    109     1
     87    106     1
     88    103     1
     88     97     1
     88    289     1
     91    100     1
     91     97     1
     91    260     1
     94    100     1
     94    103     1
     94    115     1
    100    280     1
    103    251     1
    109    242     1
    112    271     1
    116    141     1
    116    138     1
    116    135     1
    117    132     1
    117    126     1
    117    347     1
    120    129     1
    120    126     1
    120    318     1
    123    129     1
    123    132     1
    123    144     1
    129    338     1
    132    309     1
    138    300     1
    141    329     1
    145    170     1
    145    167     1
    145    164     1
    146    161     1
    146    155     1
    146    405     1
    149    158     1
    149    155     1
    149    376     1
    152    158     1
    152    161     1
    152    173     1
    158    396     1
    161    367     1
    167    358     1
    170    387     1
    174    199     1
    174    196     1
    174    193     1
    175    190     1
    175    184     1
    175    463     1
    178    187     1
    178    184     1
    178    434     1
    181    187     1
    181    190     1
    181    202     1
    187    454     1
    190    425     1
    196    416     1
    199    445     1
    203    228     1
    203    225     1
    203    222     1
    204    219     1
    204    213     1
    204    521     1
    207    216     1
    207    213     1
    207    492     1
    210    216     1
    210    219     1
    210    231     1
    216    512     1
    219    483     1
    225    474     1
    228    503     1
    232    257     1
    232    254     1
    232    251     1
    233    248     1
    233    242     1
    233    579     1
    236    245     1
    236    242     1
    236    550     1
    239    245     1
    239    248     1
    239    260     1
    245    570     1
    248    541     1
    254    532     1
    257    561     1
    261    286     1
    261    283     1
    261    280     1
    262    277     1
    262    271     1
    262    637     1
    265    274     1
    265    271     1
    265    608     1
    268    274     1
    268    277     1
    268    289     1
    274    628     1
    277    599     1
    283    590     1
    286    619     1
    290    315     1
    290    312     1
    290    309     1
    291    306     1
    291    300     1
    291    695     1
    294    303     1
    294    300     1
    294    666     1
    297    303     1
    297    306     1
    297    318     1
    303    686     1
    306    657     1
    312    648     1
    315    677     1
    319    344     1
    319    341     1
    319    338     1
    320    335     1
    320    329     1
    320    753     1
    323    332     1
    323    329     1
    323    724     1
    326    332     1
    326    335     1
    326    347     1
    332    744     1
    335    715     1
    341    706     1
    344    735     1
    348    373     1
    348    370     1
    348    367     1
    349    364     1
    349    358     1
    349    811     1
    352    361     1
    352    358     1
    352    782     1
    355    361     1
    355    364     1
    355    376     1
    361    802     1
    364    773     1
    370    764     1
    373    793     1
    377    402     1
    377    399     1
    377    396     1
    378    393     1
    378    387     1
    378    869     1
    381    390     1
    381    387     1
    381    840     1
    384    390     1
    384    393     1
    384    405     1
    390    860     1
    393    831     1
    399    822     1
    402    851     1
    406    431     1
    406    428     1
    406    425     1
    407    422     1
    407    416     1
    407    927     1
    410    419     1
    410    416     1
    410    898     1
    413    419     1
    413    422     1
    413    434     1
    419    918     1
    422    889     1
    428    880     1
    431    909     1
    435    460     1
    435    457     1
    435    454     1
    436    451     1
    436    445     1
    436    985     1
    439    448     1
    439    445     1
    439    956     1
    442    448     1
    442    451     1
    442    463     1
    448    976     1
    451    947     1
    457    938     1
    460    967     1
    464    489     1
    464    486     1
    464    483     1
    465    480     1
    465    474     1
    465   1043     1
    468    477     1
    468    474     1
    468   1014     1
    471    477     1
    471    480     1
    471    492     1
    477   1034     1
    480   1005     1
    486    996     1
    489   1025     1
    493    518     1
    493    515     1
    493    512     1
    494    509     1
    494    503     1
    494   1101     1
    497    506     1
    497    503     1
    497   1072     1
    500    506     1
    500    509     1
    500    521     1
    506   1092     1
    509   1063     1
    515   1054     1
    518   1083     1
    522    547     1
    522    544     1
    522    541     1
    523    538     1
    523    532     1
    523   1159     1
    526    535     1
    526    532     1
    526   1130     1
    529    535     1
    529    538     1
    529    550     1
    535   1150     1
    538   1121     1
    544   1112     1
    547   1141     1
    551    576     1
    551    573     1
    551    570     1
    552    567     1
    552    561     1
    552   1217     1
    555    564     1
    555    561     1
    555   1188     1
    558    564     1
    558    567     1
    558    579     1
    564   1208     1
    567   1179     1
    573   1170     1
    576   1199     1
    580    605     1
    580    602     1
    580    599     1
    581    596     1
    581    590     1
    581   1275     1
    584    593     1
    584    590     1
    584   1246     1
    587    593     1
    587    596     1
    587    608     1
    593   1266     1
    596   1237     1
    602   1228     1
    605   1257     1
    609    634     1
    609    631     1
    609    628     1
    610    625     1
    610    619     1
    610   1333     1
    613    622     1
    613    619     1
    613   1304     1
    616    622     1
    616    625     1
    616    637     1
    622   1324     1
    625   1295     1
    631   1286     1
    634   1315     1
    638    663     1
    638    660     1
    638    657     1
    639    654     1
    639    648     1
    639   1391     1
    642    651     1
    642    648     1
    642   1362     1
    645    651     1
    645    654     1
    645    666     1
    651   1382     1
    654   1353     1
    660   1344     1
    663   1373     1
    667    692     1
    667    689     1
    667    686     1
    668    683     1
    668    677     1
    668   1449     1
    671    680     1
    671    677     1
    671   1420     1
    674    680     1
    674    683     1
    674    695     1
    680   1440     1
    683   1411     1
    689   1402     1
    692   1431     1
    696    721     1
    696    718     1
    696    715     1
    697    712     1
    697    706     1
    697   1507     1
    700    709     1
    700    706     1
    700   1478     1
    703    709     1
    703    712     1
    703    724     1
    709   1498     1
    712   1469     1
    718   1460     1
    721   1489     1
    725    750     1
    725    747     1
    725    744     1
    726    741     1
    726    735     1
    726   1565     1
    729    738     1
    729    735     1
    729   1536     1
    732    738     1
    732    741     1
    732    753     1
    738   1556     1
    741   1527     1
    747   1518     1
    750   1547     1
    754    779     1
    754    776     1
    754    773     1
    755    770     1
    755    764     1
    755   1623     1
    758    767     1
    758    764     1
    758   1594     1
    761    767     1
    761    770     1
    761    782     1
    767   1614     1
    770   1585     1
    776   1576     1
    779   1605     1
    783    808     1
    783    805     1
    783    802     1
    784    799     1
    784    793     1
    784   1681     1
    787    796     1
    787    793     1
    787   1652     1
    790    796     1
    790    799     1
    790    811     1
    796   1672     1
    799   1643     1
    805   1634     1
    808   1663     1
    812    837     1
    812    834     1
    812    831     1
    813    828     1
    813    822     1
    813   1739     1
    816    825     1
    816    822     1
    816   1710     1
    819    825     1
    819    828     1
    819    840     1
    825   1730     1
    828   1701     1
    834   1692     1
    837   1721     1
    841    866     1
    841    863     1
    841    860     1
    842    857     1
    842    851     1
    842   1797     1
    845    854     1
    845    851     1
    845   1768     1
    848    854     1
    848    857     1
    848    869     1
    854   1788     1
    857   1759     1
    863   1750     1
    866   1779     1
    870    895     1
    870    892     1
    870    889     1
    871    886     1
    871    880     1
    871   1855     1
    874    883     1
    874    880     1
    874   1826     1
    877    883     1
    877    886     1
    877    898     1
    883   1846     1
    886   1817     1
    892   1808     1
    895   1837     1
    899    924     1
    899    921     1
    899    918     1
    900    915     1
    900    909     1
    900   1913     1
    903    912     1
    903    909     1
    903   1884     1
    906    912     1
    906    915     1
    906    927     1
    912   1904     1
    915   1875     1
    921   1866     1
    924   1895     1
    928    953     1
    928    950     1
    928    947     1
    929    944     1
    929    938     1
    929   1971     1
    932    941     1
    932    938     1
    932   1942     1
    935    941     1
    935    944     1
    935    956     1
    941   1962     1
    944   1933     1
    950   1924     1
    953   1953     1
    957    982     1
    957    979     1
    957    976     1
    958    973     1
    958    967     1
    958   2029     1
    961    970     1
    961    967     1
    961   2000     1
    964    970     1
    964    973     1
    964    985     1
    970   2020     1
    973   1991     1
    979   1982     1
    982   2011     1
    986   1011     1
    986   1008     1
    986   1005     1
    987   1002     1
    987    996     1
    987   2087     1
    990    999     1
    990    996     1
    990   2058     1
    993    999     1
    993   1002     1
    993   1014     1
    999   2078     1
   1002   2049     1
   1008   2040     1
   1011   2069     1
   1015   1040     1
   1015   1037     1
   1015   1034     1
   1016   1031     1
   1016   1025     1
   1016   2145     1
   1019   1028     1
   1019   1025     1
   1019   2116     1
   1022   1028     1
   1022   1031     1
   1022   1043     1
   1028   2136     1
   1031   2107     1
   1037   2098     1
   1040   2127     1
   1044   1069     1
   1044   1066     1
   1044   1063     1
   1045   1060     1
   1045   1054     1
   1045   2203     1
   1048   1057     1
   1048   1054     1
   1048   2174     1
   1051   1057     1
   1051   1060     1
   1051   1072     1
   1057   2194     1
   1060   2165     1
   1066   2156     1
   1069   2185     1
   1073   1098     1
   1073   1095     1
   1073   1092     1
   1074   1089     1
   1074   1083     1
   1074   2261     1
   1077   1086     1
   1077   1083     1
   1077   2232     1
   1080   1086     1
   1080   1089     1
   1080   1101     1
   1086   2252     1
   1089   2223     1
   1095   2214     1
   1098   2243     1
   1102   1127     1
   1102   1124     1
   1102   1121     1
   1103   1118     1
   1103   1112     1
   1103   2319     1
   1106   1115     1
   1106   1112     1
   1106   2290     1
   1109   1115     1
   1109   1118     1
   1109   1130     1
   1115   2310     1
   1118   2281     1
   1124   2272     1
   1127   2301     1
   1131   1156     1
   1131   1153     1
   1131   1150     1
   1132   1147     1
   1132   1141     1
   1132   2377     1
   1135   1144     1
   1135   1141     1
   1135   2348     1
   1138   1144     1
   1138   1147     1
   1138   1159     1
   1144   2368     1
   1147   2339     1
   1153   2330     1
   1156   2359     1
   1160   1185     1
   1160   1182     1
   1160   1179     1
   1161   1176     1
   1161   1170     1
   1161   2435     1
   1164   1173     1
   1164   1170     1
   1164   2406     1
   1167   1173     1
   1167   1176     1
   1167   1188     1
   1173   2426     1
   1176   2397     1
   1182   2388     1
   1185   2417     1
   1189   1214     1
   1189   1211     1
   1189   1208     1
   1190   1205     1
   1190   1199     1
   1190   2493     1
   1193   1202     1
   1193   1199     1
   1193   2464     1
   1196   1202     1
   1196   1205     1
   1196   1217     1
   1202   2484     1
   1205   2455     1
   1211   2446     1
   1214   2475     1
   1218   1243     1
   1218   1240     1
   1218   1237     1
   1219   1234     1
   1219   1228     1
   1219   2551     1
   1222   1231     1
   1222   1228     1
   1222   2522     1
   1225   1231     1
   1225   1234     1
   1225   1246     1
   1231   2542     1
   1234   2513     1
   1240   2504     1
   1243   2533     1
   1247   1272     1
   1247   1269     1
   1247   1266     1
   1248   1263     1
   1248   1257     1
   1248   2609     1
   1251   1260     1
   1251   1257     1
   1251   2580     1
   1254   1260     1
   1254   1263     1
   1254   1275     1
   1260   2600     1
   1263   2571     1
   1269   2562     1
   1272   2591     1
   1276   1301     1
   1276   1298     1
   1276   1295     1
   1277   1292     1
   1277   1286     1
   1277   2667     1
   1280   1289     1
   1280   1286     1
   1280   2638     1
   1283   1289     1
   1283   1292     1
   1283   1304     1
   1289   2658     1
   1292   2629     1
   1298   2620     1
   1301   2649     1
   1305   1330     1
   1305   1327     1
   1305   1324     1
   1306   1321     1
   1306   1315     1
   1306   2725     1
   1309   1318     1
   1309   1315     1
   1309   2696     1
   1312   1318     1
   1312   1321     1
   1312   1333     1
   1318   2716     1
   1321   2687     1
   1327   2678     1
   1330   2707     1
   1334   1359     1
   1334   1356     1
   1334   1353     1
   1335   1350     1
   1335   1344     1
   1335   2787     1
   1338   1347     1
   1338   1344     1
   1338   2756     1
   1341   1347     1
   1341   1350     1
   1341   1362     1
   1347   2757     1
   1350   2726     1
   1356   2729     1
   1359   2760     1
   1363   1388     1
   1363   1385     1
   1363   1382     1
   1364   1379     1
   1364   1373     1
   1364   2849     1
   1367   1376     1
   1367   1373     1
   1367   2818     1
   1370   1376     1
   1370   1379     1
   1370   1391     1
   1376   2819     1
   1379   2788     1
   1385   2791     1
   1388   2822     1
   1392   1417     1
   1392   1414     1
   1392   1411     1
   1393   1408     1
   1393   1402     1
   1393   2911     1
   1396   1405     1
   1396   1402     1
   1396   2880     1
   1399   1405     1
   1399   1408     1
   1399   1420     1
   1405   2881     1
   1408   2850     1
   1414   2853     1
   1417   2884     1
   1421   1446     1
   1421   1443     1
   1421   1440     1
   1422   1437     1
   1422   1431     1
   1422   2973     1
   1425   1434     1
   1425   1431     1
   1425   2942     1
   1428   1434     1
   1428   1437     1
   1428   1449     1
   1434   2943     1
   1437   2912     1
   1443   2915     1
   1446   2946     1
   1450   1475     1
   1450   1472     1
   1450   1469     1
   1451   1466     1
   1451   1460     1
   1451   3035     1
   1454   1463     1
   1454   1460     1
   1454   3004     1
   1457   1463     1
   1457   1466     1
   1457   1478     1
   1463   3005     1
   1466   2974     1
   1472   2977     1
   1475   3008     1
   1479   1504     1
   1479   1501     1
   1479   1498     1
   1480   1495     1
   1480   1489     1
   1480   3097     1
   1483   1492     1
   1483   1489     1
   1483   3066     1
   1486   1492     1
   1486   1495     1
   1486   1507     1
   1492   3067     1
   1495   3036     1
   1501   3039     1
   1504   3070     1
   1508   1533     1
   1508   1530     1
   1508   1527     1
   1509   1524     1
   1509   1518     1
   1509   3159     1
   1512   1521     1
   1512   1518     1
   1512   3128     1
   1515   1521     1
   1515   1524     1
   1515   1536     1
   1521   3129     1
   1524   3098     1
   1530   3101     1
   1533   3132     1
   1537   1562     1
   1537   1559     1
   1537   1556     1
   1538   1553     1
   1538   1547     1
   1538   3221     1
   1541   1550     1
   1541   1547     1
   1541   3190     1
   1544   1550     1
   1544   1553     1
   1544   1565     1
   1550   3191     1
   1553   3160     1
   1559   3163     1
   1562   3194     1
   1566   1591     1
   1566   1588     1
   1566   1585     1
   1567   1582     1
   1567   1576     1
   1567   3283     1
   1570   1579     1
   1570   1576     1
   1570   3252     1
   1573   1579     1
   1573   1582     1
   1573   1594     1
   1579   3253     1
   1582   3222     1
   1588   3225     1
   1591   3256     1
   1595   1620     1
   1595   1617     1
   1595   1614     1
   1596   1611     1
   1596   1605     1
   1596   3345     1
   1599   1608     1
   1599   1605     1
   1599   3314     1
   1602   1608     1
   1602   1611     1
   1602   1623     1
   1608   3315     1
   1611   3284     1
   1617   3287     1
   1620   3318     1
   1624   1649     1
   1624   1646     1
   1624   1643     1
   1625   1640     1
   1625   1634     1
   1625   3407     1
   1628   1637     1
   1628   1634     1
   1628   3376     1
   1631   1637     1
   1631   1640     1
   1631   1652     1
   1637   3377     1
   1640   3346     1
   1646   3349     1
   1649   3380     1
   1653   1678     1
   1653   1675     1
   1653   1672     1
   1654   1669     1
   1654   1663     1
   1654   3469     1
   1657   1666     1
   1657   1663     1
   1657   3438     1
   1660   1666     1
   1660   1669     1
   1660   1681     1
   1666   3439     1
   1669   3408     1
   1675   3411     1
   1678   3442     1
   1682   1707     1
   1682   1704     1
   1682   1701     1
   1683   1698     1
   1683   1692     1
   1683   3531     1
   1686   1695     1
   1686   1692     1
   1686   3500     1
   1689   1695     1
   1689   1698     1
   1689   1710     1
   1695   3501     1
   1698   3470     1
   1704   3473     1
   1707   3504     1
   1711   1736     1
   1711   1733     1
   1711   1730     1
   1712   1727     1
   1712   1721     1
   1712   3593     1
   1715   1724     1
   1715   1721     1
   1715   3562     1
   1718   1724     1
   1718   1727     1
   1718   1739     1
   1724   3563     1
   1727   3532     1
   1733   3535     1
   1736   3566     1
   1740   1765     1
   1740   1762     1
   1740   1759     1
   1741   1756     1
   1741   1750     1
   1741   3655     1
   1744   1753     1
   1744   1750     1
   1744   3624     1
   1747   1753     1
   1747   1756     1
   1747   1768     1
   1753   3625     1
   1756   3594     1
   1762   3597     1
   1765   3628     1
   1769   1794     1
   1769   1791     1
   1769   1788     1
   1770   1785     1
   1770   1779     1
   1770   3717     1
   1773   1782     1
   1773   1779     1
   1773   3686     1
   1776   1782     1
   1776   1785     1
   1776   1797     1
   1782   3687     1
   1785   3656     1
   1791   3659     1
   1794   3690     1
   1798   1823     1
   1798   1820     1
   1798   1817     1
   1799   1814     1
   1799   1808     1
   1799   3779     1
   1802   1811     1
   1802   1808     1
   1802   3748     1
   1805   1811     1
   1805   1814     1
   1805   1826     1
   1811   3749     1
   1814   3718     1
   1820   3721     1
   1823   3752     1
   1827   1852     1
   1827   1849     1
   1827   1846     1
   1828   1843     1
   1828   1837     1
   1828   3841     1
   1831   1840     1
   1831   1837     1
   1831   3810     1
   1834   1840     1
   1834   1843     1
   1834   1855     1
   1840   3811     1
   1843   3780     1
   1849   3783     1
   1852   3814     1
   1856   1881     1
   1856   1878     1
   1856   1875     1
   1857   1872     1
   1857   1866     1
   1857   3903     1
   1860   1869     1
   1860   1866     1
   1860   3872     1
   1863   1869     1
   1863   1872     1
   1863   1884     1
   1869   3873     1
   1872   3842     1
   1878   3845     1
   1881   3876     1
   1885   1910     1
   1885   1907     1
   1885   1904     1
   1886   1901     1
   1886   1895     1
   1886   3965     1
   1889   1898     1
   1889   1895     1
   1889   3934     1
   1892   1898     1
   1892   1901     1
   1892   1913     1
   1898   3935     1
   1901   3904     1
   1907   3907     1
   1910   3938     1
   1914   1939     1
   1914   1936     1
   1914   1933     1
   1915   1930     1
   1915   1924     1
   1915   4027     1
   1918   1927     1
   1918   1924     1
   1918   3996     1
   1921   1927     1
   1921   1930     1
   1921   1942     1
   1927   3997     1
   1930   3966     1
   1936   3969     1
   1939   4000     1
   1943   1968     1
   1943   1965     1
   1943   1962     1
   1944   1959     1
   1944   1953     1
   1944   4089     1
   1947   1956     1
   1947   1953     1
   1947   4058     1
   1950   1956     1
   1950   1959     1
   1950   1971     1
   1956   4059     1
   1959   4028     1
   1965   4031     1
   1968   4062     1
   1972   1997     1
   1972   1994     1
   1972   1991     1
   1973   1988     1
   1973   1982     1
   1973   4151     1
   1976   1985     1
   1976   1982     1
   1976   4120     1
   1979   1985     1
   1979   1988     1
   1979   2000     1
   1985   4121     1
   1988   4090     1
   1994   4093     1
   1997   4124     1
   2001   2026     1
   2001   2023     1
   2001   2020     1
   2002   2017     1
   2002   2011     1
   2002   4213     1
   2005   2014     1
   2005   2011     1
   2005   4182     1
   2008   2014     1
   2008   2017     1
   2008   2029     1
   2014   4183     1
   2017   4152     1
   2023   4155     1
   2026   4186     1
   2030   2055     1
   2030   2052     1
   2030   2049     1
   2031   2046     1
   2031   2040     1
   2031   4275     1
   2034   2043     1
   2034   2040     1
   2034   4244     1
   2037   2043     1
   2037   2046     1
   2037   2058     1
   2043   4245     1
   2046   4214     1
   2052   4217     1
   2055   4248     1
   2059   2084     1
   2059   2081     1
   2059   2078     1
   2060   2075     1
   2060   2069     1
   2060   4337     1
   2063   2072     1
   2063   2069     1
   2063   4306     1
   2066   2072     1
   2066   2075     1
   2066   2087     1
   2072   4307     1
   2075   4276     1
   2081   4279     1
   2084   4310     1
   2088   2113     1
   2088   2110     1
   2088   2107     1
   2089   2104     1
   2089   2098     1
   2089   4399     1
   2092   2101     1
   2092   2098     1
   2092   4368     1
   2095   2101     1
   2095   2104     1
   2095   2116     1
   2101   4369     1
   2104   4338     1
   2110   4341     1
   2113   4372     1
   2117   2142     1
   2117   2139     1
   2117   2136     1
   2118   2133     1
   2118   2127     1
   2118   4461     1
   2121   2130     1
   2121   2127     1
   2121   4430     1
   2124   2130     1
   2124   2133     1
   2124   2145     1
   2130   4431     1
   2133   4400     1
   2139   4403     1
   2142   4434     1
   2146   2171     1
   2146   2168     1
   2146   2165     1
   2147   2162     1
   2147   2156     1
   2147   4523     1
   2150   2159     1
   2150   2156     1
   2150   4492     1
   2153   2159     1
   2153   2162     1
   2153   2174     1
   2159   4493     1
   2162   4462     1
   2168   4465     1
   2171   4496     1
   2175   2200     1
   2175   2197     1
   2175   2194     1
   2176   2191     1
   2176   2185     1
   2176   4585     1
   2179   2188     1
   2179   2185     1
   2179   4554     1
   2182   2188     1
   2182   2191     1
   2182   2203     1
   2188   4555     1
   2191   4524     1
   2197   4527     1
   2200   4558     1
   2204   2229     1
   2204   2226     1
   2204   2223     1
   2205   2220     1
   2205   2214     1
   2205   4647     1
   2208   2217     1
   2208   2214     1
   2208   4616     1
   2211   2217     1
   2211   2220     1
   2211   2232     1
   2217   4617     1
   2220   4586     1
   2226   4589     1
   2229   4620     1
   2233   2258     1
   2233   2255     1
   2233   2252     1
   2234   2249     1
   2234   2243     1
   2234   4709     1
   2237   2246     1
   2237   2243     1
   2237   4678     1
   2240   2246     1
   2240   2249     1
   2240   2261     1
   2246   4679     1
   2249   4648     1
   2255   4651     1
   2258   4682     1
   2262   2287     1
   2262   2284     1
   2262   2281     1
   2263   2278     1
   2263   2272     1
   2263   4771     1
   2266   2275     1
   2266   2272     1
   2266   4740     1
   2269   2275     1
   2269   2278     1
   2269   2290     1
   2275   4741     1
   2278   4710     1
   2284   4713     1
   2287   4744     1
   2291   2316     1
   2291   2313     1
   2291   2310     1
   2292   2307     1
   2292   2301     1
   2292   4833     1
   2295   2304     1
   2295   2301     1
   2295   4802     1
   2298   2304     1
   2298   2307     1
   2298   2319     1
   2304   4803     1
   2307   4772     1
   2313   4775     1
   2316   4806     1
   2320   2345     1
   2320   2342     1
   2320   2339     1
   2321   2336     1
   2321   2330     1
   2321   4895     1
   2324   2333     1
   2324   2330     1
   2324   4864     1
   2327   2333     1
   2327   2336     1
   2327   2348     1
   2333   4865     1
   2336   4834     1
   2342   4837     1
   2345   4868     1
   2349   2374     1
   2349   2371     1
   2349   2368     1
   2350   2365     1
   2350   2359     1
   2350   4957     1
   2353   2362     1
   2353   2359     1
   2353   4926     1
   2356   2362     1
   2356   2365     1
   2356   2377     1
   2362   4927     1
   2365   4896     1
   2371   4899     1
   2374   4930     1
   2378   2403     1
   2378   2400     1
   2378   2397     1
   2379   2394     1
   2379   2388     1
   2379   5019     1
   2382   2391     1
   2382   2388     1
   2382   4988     1
   2385   2391     1
   2385   2394     1
   2385   2406     1
   2391   4989     1
   2394   4958     1
   2400   4961     1
   2403   4992     1
   2407   2432     1
   2407   2429     1
   2407   2426     1
   2408   2423     1
   2408   2417     1
   2408   5081     1
   2411   2420     1
   2411   2417     1
   2411   5050     1
   2414   2420     1
   2414   2423     1
   2414   2435     1
   2420   5051     1
   2423   5020     1
   2429   5023     1
   2432   5054     1
   2436   2461     1
   2436   2458     1
   2436   2455     1
   2437   2452     1
   2437   2446     1
   2437   5143     1
   2440   2449     1
   2440   2446     1
   2440   5112     1
   2443   2449     1
   2443   2452     1
   2443   2464     1
   2449   5113     1
   2452   5082     1
   2458   5085     1
   2461   5116     1
   2465   2490     1
   2465   2487     1
   2465   2484     1
   2466   2481     1
   2466   2475     1
   2466   5205     1
   2469   2478     1
   2469   2475     1
   2469   5174     1
   2472   2478     1
   2472   2481     1
   2472   2493     1
   2478   5175     1
   2481   5144     1
   2487   5147     1
   2490   5178     1
   2494   2519     1
   2494   2516     1
   2494   2513     1
   2495   2510     1
   2495   2504     1
   2495   5267     1
   2498   2507     1
   2498   2504     1
   2498   5236     1
   2501   2507     1
   2501   2510     1
   2501   2522     1
   2507   5237     1
   2510   5206     1
   2516   5209     1
   2519   5240     1
   2523   2548     1
   2523   2545     1
   2523   2542     1
   2524   2539     1
   2524   2533     1
   2524   5329     1
   2527   2536     1
   2527   2533     1
   2527   5298     1
   2530   2536     1
   2530   2539     1
   2530   2551     1
   2536   5299     1
   2539   5268     1
   2545   5271     1
   2548   5302     1
   2552   2577     1
   2552   2574     1
   2552   2571     1
   2553   2568     1
   2553   2562     1
   2553   5391     1
   2556   2565     1
   2556   2562     1
   2556   5360     1
   2559   2565     1
   2559   2568     1
   2559   2580     1
   2565   5361     1
   2568   5330     1
   2574   5333     1
   2577   5364     1
   2581   2606     1
   2581   2603     1
   2581   2600     1
   2582   2597     1
   2582   2591     1
   2582   5453     1
   2585   2594     1
   2585   2591     1
   2585   5422     1
   2588   2594     1
   2588   2597     1
   2588   2609     1
   2594   5423     1
   2597   5392     1
   2603   5395     1
   2606   5426     1
   2610   2635     1
   2610   2632     1
   2610   2629     1
   2611   2626     1
   2611   2620     1
   2611   5515     1
   2614   2623     1
   2614   2620     1
   2614   5484     1
   2617   2623     1
   2617   2626     1
   2617   2638     1
   2623   5485     1
   2626   5454     1
   2632   5457     1
   2635   5488     1
   2639   2664     1
   2639   2661     1
   2639   2658     1
   2640   2655     1
   2640   2649     1
   2640   5577     1
   2643   2652     1
   2643   2649     1
   2643   5546     1
   2646   2652     1
   2646   2655     1
   2646   2667     1
   2652   5547     1
   2655   5516     1
   2661   5519     1
   2664   5550     1
   2668   2693     1
   2668   2690     1
   2668   2687     1
   2669   2684     1
   2669   2678     1
   2669   5639     1
   2672   2681     1
   2672   2678     1
   2672   5608     1
   2675   2681     1
   2675   2684     1
   2675   2696     1
   2681   5609     1
   2684   5578     1
   2690   5581     1
   2693   5612     1
   2697   2722     1
   2697   2719     1
   2697   2716     1
   2698   2713     1
   2698   2707     1
   2698   5701     1
   2701   2710     1
   2701   2707     1
   2701   5670     1
   2704   2710     1
   2704   2713     1
   2704   2725     1
   2710   5671     1
   2713   5640     1
   2719   5643     1
   2722   5674     1
   2726   2735     1
   2729   2736     1
   2729   2746     1
   2732   2756     1
   2732   2739     1
   2732   2749     1
   2735   2742     1
   2735   2752     1
   2736   2749     1
   2736   2743     1
   2736   2744     1
   2739   2746     1
   2746   2753     1
   2746   2754     1
   2757   2766     1
   2760   2767     1
   2760   2777     1
   2763   2770     1
   2763   2780     1
   2763   2787     1
   2766   2773     1
   2766   2783     1
   2767   2774     1
   2767   2775     1
   2767   2780     1
   2770   2777     1
   2777   2784     1
   2777   2785     1
   2788   2797     1
   2791   2798     1
   2791   2808     1
   2794   2818     1
   2794   2801     1
   2794   2811     1
   2797   2804     1
   2797   2814     1
   2798   2811     1
   2798   2805     1
   2798   2806     1
   2801   2808     1
   2808   2815     1
   2808   2816     1
   2819   2828     1
   2822   2829     1
   2822   2839     1
   2825   2832     1
   2825   2842     1
   2825   2849     1
   2828   2835     1
   2828   2845     1
   2829   2836     1
   2829   2837     1
   2829   2842     1
   2832   2839     1
   2839   2846     1
   2839   2847     1
   2850   2859     1
   2853   2860     1
   2853   2870     1
   2856   2880     1
   2856   2863     1
   2856   2873     1
   2859   2866     1
   2859   2876     1
   2860   2873     1
   2860   2867     1
   2860   2868     1
   2863   2870     1
   2870   2877     1
   2870   2878     1
   2881   2890     1
   2884   2891     1
   2884   2901     1
   2887   2894     1
   2887   2904     1
   2887   2911     1
   2890   2897     1
   2890   2907     1
   2891   2898     1
   2891   2899     1
   2891   2904     1
   2894   2901     1
   2901   2908     1
   2901   2909     1
   2912   2921     1
   2915   2922     1
   2915   2932     1
   2918   2942     1
   2918   2925     1
   2918   2935     1
   2921   2928     1
   2921   2938     1
   2922   2935     1
   2922   2929     1
   2922   2930     1
   2925   2932     1
   2932   2939     1
   2932   2940     1
   2943   2952     1
   2946   2953     1
   2946   2963     1
   2949   2956     1
   2949   2966     1
   2949   2973     1
   2952   2959     1
   2952   2969     1
   2953   2960     1
   2953   2961     1
   2953   2966     1
   2956   2963     1
   2963   2970     1
   2963   2971     1
   2974   2983     1
   2977   2984     1
   2977   2994     1
   2980   3004     1
   2980   2987     1
   2980   2997     1
   2983   2990     1
   2983   3000     1
   2984   2997     1
   2984   2991     1
   2984   2992     1
   2987   2994     1
   2994   3001     1
   2994   3002     1
   3005   3014     1
   3008   3015     1
   3008   3025     1
   3011   3018     1
   3011   3028     1
   3011   3035     1
   3014   3021     1
   3014   3031     1
   3015   3022     1
   3015   3023     1
   3015   3028     1
   3018   3025     1
   3025   3032     1
   3025   3033     1
   3036   3045     1
   3039   3046     1
   3039   3056     1
   3042   3066     1
   3042   3049     1
   3042   3059     1
   3045   3052     1
   3045   3062     1
   3046   3059     1
   3046   3053     1
   3046   3054     1
   3049   3056     1
   3056   3063     1
   3056   3064     1
   3067   3076     1
   3070   3077     1
   3070   3087     1
   3073   3080     1
   3073   3090     1
   3073   3097     1
   3076   3083     1
   3076   3093     1
   3077   3084     1
   3077   3085     1
   3077   3090     1
   3080   3087     1
   3087   3094     1
   3087   3095     1
   3098   3107     1
   3101   3108     1
   3101   3118     1
   3104   3128     1
   3104   3111     1
   3104   3121     1
   3107   3114     1
   3107   3124     1
   3108   3121     1
   3108   3115     1
   3108   3116     1
   3111   3118     1
   3118   3125     1
   3118   3126     1
   3129   3138     1
   3132   3139     1
   3132   3149     1
   3135   3142     1
   3135   3152     1
   3135   3159     1
   3138   3145     1
   3138   3155     1
   3139   3146     1
   3139   3147     1
   3139   3152     1
   3142   3149     1
   3149   3156     1
   3149   3157     1
   3160   3169     1
   3163   3170     1
   3163   3180     1
   3166   3190     1
   3166   3173     1
   3166   3183     1
   3169   3176     1
   3169   3186     1
   3170   3183     1
   3170   3177     1
   3170   3178     1
   3173   3180     1
   3180   3187     1
   3180   3188     1
   3191   3200     1
   3194   3201     1
   3194   3211     1
   3197   3204     1
   3197   3214     1
   3197   3221     1
   3200   3207     1
   3200   3217     1
   3201   3208     1
   3201   3209     1
   3201   3214     1
   3204   3211     1
   3211   3218     1
   3211   3219     1
   3222   3231     1
   3225   3232     1
   3225   3242     1
   3228   3252     1
   3228   3235     1
   3228   3245     1
   3231   3238     1
   3231   3248     1
   3232   3245     1
   3232   3239     1
   3232   3240     1
   3235   3242     1
   3242   3249     1
   3242   3250     1
   3253   3262     1
   3256   3263     1
   3256   3273     1
   3259   3266     1
   3259   3276     1
   3259   3283     1
   3262   3269     1
   3262   3279     1
   3263   3270     1
   3263   3271     1
   3263   3276     1
   3266   3273     1
   3273   3280     1
   3273   3281     1
   3284   3293     1
   3287   3294     1
   3287   3304     1
   3290   3314     1
   3290   3297     1
   3290   3307     1
   3293   3300     1
   3293   3310     1
   3294   3307     1
   3294   3301     1
   3294   3302     1
   3297   3304     1
   3304   3311     1
   3304   3312     1
   3315   3324     1
   3318   3325     1
   3318   3335     1
   3321   3328     1
   3321   3338     1
   3321   3345     1
   3324   3331     1
   3324   3341     1
   3325   3332     1
   3325   3333     1
   3325   3338     1
   3328   3335     1
   3335   3342     1
   3335   3343     1
   3346   3355     1
   3349   3356     1
   3349   3366     1
   3352   3376     1
   3352   3359     1
   3352   3369     1
   3355   3362     1
   3355   3372     1
   3356   3369     1
   3356   3363     1
   3356   3364     1
   3359   3366     1
   3366   3373     1
   3366   3374     1
   3377   3386     1
   3380   3387     1
   3380   3397     1
   3383   3390     1
   3383   3400     1
   3383   3407     1
   3386   3393     1
   3386   3403     1
   3387   3394     1
   3387   3395     1
   3387   3400     1
   3390   3397     1
   3397   3404     1
   3397   3405     1
   3408   3417     1
   3411   3418     1
   3411   3428     1
   3414   3438     1
   3414   3421     1
   3414   3431     1
   3417   3424     1
   3417   3434     1
   3418   3431     1
   3418   3425     1
   3418   3426     1
   3421   3428     1
   3428   3435     1
   3428   3436     1
   3439   3448     1
   3442   3449     1
   3442   3459     1
   3445   3452     1
   3445   3462     1
   3445   3469     1
   3448   3455     1
   3448   3465     1
   3449   3456     1
   3449   3457     1
   3449   3462     1
   3452   3459     1
   3459   3466     1
   3459   3467     1
   3470   3479     1
   3473   3480     1
   3473   3490     1
   3476   3500     1
   3476   3483     1
   3476   3493     1
   3479   3486     1
   3479   3496     1
   3480   3493     1
   3480   3487     1
   3480   3488     1
   3483   3490     1
   3490   3497     1
   3490   3498     1
   3501   3510     1
   3504   3511     1
   3504   3521     1
   3507   3514     1
   3507   3524     1
   3507   3531     1
   3510   3517     1
   3510   3527     1
   3511   3518     1
   3511   3519     1
   3511   3524     1
   3514   3521     1
   3521   3528     1
   3521   3529     1
   3532   3541     1
   3535   3542     1
   3535   3552     1
   3538   3562     1
   3538   3545     1
   3538   3555     1
   3541   3548     1
   3541   3558     1
   3542   3555     1
   3542   3549     1
   3542   3550     1
   3545   3552     1
   3552   3559     1
   3552   3560     1
   3563   3572     1
   3566   3573     1
   3566   3583     1
   3569   3576     1
   3569   3586     1
   3569   3593     1
   3572   3579     1
   3572   3589     1
   3573   3580     1
   3573   3581     1
   3573   3586     1
   3576   3583     1
   3583   3590     1
   3583   3591     1
   3594   3603     1
   3597   3604     1
   3597   3614     1
   3600   3624     1
   3600   3607     1
   3600   3617     1
   3603   3610     1
   3603   3620     1
   3604   3617     1
   3604   3611     1
   3604   3612     1
   3607   3614     1
   3614   3621     1
   3614   3622     1
   3625   3634     1
   3628   3635     1
   3628   3645     1
   3631   3638     1
   3631   3648     1
   3631   3655     1
   3634   3641     1
   3634   3651     1
   3635   3642     1
   3635   3643     1
   3635   3648     1
   3638   3645     1
   3645   3652     1
   3645   3653     1
   3656   3665     1
   3659   3666     1
   3659   3676     1
   3662   3686     1
   3662   3669     1
   3662   3679     1
   3665   3672     1
   3665   3682     1
   3666   3679     1
   3666   3673     1
   3666   3674     1
   3669   3676     1
   3676   3683     1
   3676   3684     1
   3687   3696     1
   3690   3697     1
   3690   3707     1
   3693   3700     1
   3693   3710     1
   3693   3717     1
   3696   3703     1
   3696   3713     1
   3697   3704     1
   3697   3705     1
   3697   3710     1
   3700   3707     1
   3707   3714     1
   3707   3715     1
   3718   3727     1
   3721   3728     1
   3721   3738     1
   3724   3748     1
   3724   3731     1
   3724   3741     1
   3727   3734     1
   3727   3744     1
   3728   3741     1
   3728   3735     1
   3728   3736     1
   3731   3738     1
   3738   3745     1
   3738   3746     1
   3749   3758     1
   3752   3759     1
   3752   3769     1
   3755   3762     1
   3755   3772     1
   3755   3779     1
   3758   3765     1
   3758   3775     1
   3759   3766     1
   3759   3767     1
   3759   3772     1
   3762   3769     1
   3769   3776     1
   3769   3777     1
   3780   3789     1
   3783   3790     1
   3783   3800     1
   3786   3810     1
   3786   3793     1
   3786   3803     1
   3789   3796     1
   3789   3806     1
   3790   3803     1
   3790   3797     1
   3790   3798     1
   3793   3800     1
   3800   3807     1
   3800   3808     1
   3811   3820     1
   3814   3821     1
   3814   3831     1
   3817   3824     1
   3817   3834     1
   3817   3841     1
   3820   3827     1
   3820   3837     1
   3821   3828     1
   3821   3829     1
   3821   3834     1
   3824   3831     1
   3831   3838     1
   3831   3839     1
   3842   3851     1
   3845   3852     1
   3845   3862     1
   3848   3872     1
   3848   3855     1
   3848   3865     1
   3851   3858     1
   3851   3868     1
   3852   3865     1
   3852   3859     1
   3852   3860     1
   3855   3862     1
   3862   3869     1
   3862   3870     1
   3873   3882     1
   3876   3883     1
   3876   3893     1
   3879   3886     1
   3879   3896     1
   3879   3903     1
   3882   3889     1
   3882   3899     1
   3883   3890     1
   3883   3891     1
   3883   3896     1
   3886   3893     1
   3893   3900     1
   3893   3901     1
   3904   3913     1
   3907   3914     1
   3907   3924     1
   3910   3934     1
   3910   3917     1
   3910   3927     1
   3913   3920     1
   3913   3930     1
   3914   3927     1
   3914   3921     1
   3914   3922     1
   3917   3924     1
   3924   3931     1
   3924   3932     1
   3935   3944     1
   3938   3945     1
   3938   3955     1
   3941   3948     1
   3941   3958     1
   3941   3965     1
   3944   3951     1
   3944   3961     1
   3945   3952     1
   3945   3953     1
   3945   3958     1
   3948   3955     1
   3955   3962     1
   3955   3963     1
   3966   3975     1
   3969   3976     1
   3969   3986     1
   3972   3996     1
   3972   3979     1
   3972   3989     1
   3975   3982     1
   3975   3992     1
   3976   3989     1
   3976   3983     1
   3976   3984     1
   3979   3986     1
   3986   3993     1
   3986   3994     1
   3997   4006     1
   4000   4007     1
   4000   4017     1
   4003   4010     1
   4003   4020     1
   4003   4027     1
   4006   4013     1
   4006   4023     1
   4007   4014     1
   4007   4015     1
   4007   4020     1
   4010   4017     1
   4017   4024     1
   4017   4025     1
   4028   4037     1
   4031   4038     1
   4031   4048     1
   4034   4058     1
   4034   4041     1
   4034   4051     1
   4037   4044     1
   4037   4054     1
   4038   4051     1
   4038   4045     1
   4038   4046     1
   4041   4048     1
   4048   4055     1
   4048   4056     1
   4059   4068     1
   4062   4069     1
   4062   4079     1
   4065   4072     1
   4065   4082     1
   4065   4089     1
   4068   4075     1
   4068   4085     1
   4069   4076     1
   4069   4077     1
   4069   4082     1
   4072   4079     1
   4079   4086     1
   4079   4087     1
   4090   4099     1
   4093   4100     1
   4093   4110     1
   4096   4120     1
   4096   4103     1
   4096   4113     1
   4099   4106     1
   4099   4116     1
   4100   4113     1
   4100   4107     1
   4100   4108     1
   4103   4110     1
   4110   4117     1
   4110   4118     1
   4121   4130     1
   4124   4131     1
   4124   4141     1
   4127   4134     1
   4127   4144     1
   4127   4151     1
   4130   4137     1
   4130   4147     1
   4131   4138     1
   4131   4139     1
   4131   4144     1
   4134   4141     1
   4141   4148     1
   4141   4149     1
   4152   4161     1
   4155   4162     1
   4155   4172     1
   4158   4182     1
   4158   4165     1
   4158   4175     1
   4161   4168     1
   4161   4178     1
   4162   4175     1
   4162   4169     1
   4162   4170     1
   4165   4172     1
   4172   4179     1
   4172   4180     1
   4183   4192     1
   4186   4193     1
   4186   4203     1
   4189   4196     1
   4189   4206     1
   4189   4213     1
   4192   4199     1
   4192   4209     1
   4193   4200     1
   4193   4201     1
   4193   4206     1
   4196   4203     1
   4203   4210     1
   4203   4211     1
   4214   4223     1
   4217   4224     1
   4217   4234     1
   4220   4244     1
   4220   4227     1
   4220   4237     1
   4223   4230     1
   4223   4240     1
   4224   4237     1
   4224   4231     1
   4224   4232     1
   4227   4234     1
   4234   4241     1
   4234   4242     1
   4245   4254     1
   4248   4255     1
   4248   4265     1
   4251   4258     1
   4251   4268     1
   4251   4275     1
   4254   4261     1
   4254   4271     1
   4255   4262     1
   4255   4263     1
   4255   4268     1
   4258   4265     1
   4265   4272     1
   4265   4273     1
   4276   4285     1
   4279   4286     1
   4279   4296     1
   4282   4306     1
   4282   4289     1
   4282   4299     1
   4285   4292     1
   4285   4302     1
   4286   4299     1
   4286   4293     1
   4286   4294     1
   4289   4296     1
   4296   4303     1
   4296   4304     1
   4307   4316     1
   4310   4317     1
   4310   4327     1
   4313   4320     1
   4313   4330     1
   4313   4337     1
   4316   4323     1
   4316   4333     1
   4317   4324     1
   4317   4325     1
   4317   4330     1
   4320   4327     1
   4327   4334     1
   4327   4335     1
   4338   4347     1
   4341   4348     1
   4341   4358     1
   4344   4368     1
   4344   4351     1
   4344   4361     1
   4347   4354     1
   4347   4364     1
   4348   4361     1
   4348   4355     1
   4348   4356     1
   4351   4358     1
   4358   4365     1
   4358   4366     1
   4369   4378     1
   4372   4379     1
   4372   4389     1
   4375   4382     1
   4375   4392     1
   4375   4399     1
   4378   4385     1
   4378   4395     1
   4379   4386     1
   4379   4387     1
   4379   4392     1
   4382   4389     1
   4389   4396     1
   4389   4397     1
   4400   4409     1
   4403   4410     1
   4403   4420     1
   4406   4430     1
   4406   4413     1
   4406   4423     1
   4409   4416     1
   4409   4426     1
   4410   4423     1
   4410   4417     1
   4410   4418     1
   4413   4420     1
   4420   4427     1
   4420   4428     1
   4431   4440     1
   4434   4441     1
   4434   4451     1
   4437   4444     1
   4437   4454     1
   4437   4461     1
   4440   4447     1
   4440   4457     1
   4441   4448     1
   4441   4449     1
   4441   4454     1
   4444   4451     1
   4451   4458     1
   4451   4459     1
   4462   4471     1
   4465   4472     1
   4465   4482     1
   4468   4492     1
   4468   4475     1
   4468   4485     1
   4471   4478     1
   4471   4488     1
   4472   4485     1
   4472   4479     1
   4472   4480     1
   4475   4482     1
   4482   4489     1
   4482   4490     1
   4493   4502     1
   4496   4503     1
   4496   4513     1
   4499   4506     1
   4499   4516     1
   4499   4523     1
   4502   4509     1
   4502   4519     1
   4503   4510     1
   4503   4511     1
   4503   4516     1
   4506   4513     1
   4513   4520     1
   4513   4521     1
   4524   4533     1
   4527   4534     1
   4527   4544     1
   4530   4554     1
   4530   4537     1
   4530   4547     1
   4533   4540     1
   4533   4550     1
   4534   4547     1
   4534   4541     1
   4534   4542     1
   4537   4544     1
   4544   4551     1
   4544   4552     1
   4555   4564     1
   4558   4565     1
   4558   4575     1
   4561   4568     1
   4561   4578     1
   4561   4585     1
   4564   4571     1
   4564   4581     1
   4565   4572     1
   4565   4573     1
   4565   4578     1
   4568   4575     1
   4575   4582     1
   4575   4583     1
   4586   4595     1
   4589   4596     1
   4589   4606     1
   4592   4616     1
   4592   4599     1
   4592   4609     1
   4595   4602     1
   4595   4612     1
   4596   4609     1
   4596   4603     1
   4596   4604     1
   4599   4606     1
   4606   4613     1
   4606   4614     1
   4617   4626     1
   4620   4627     1
   4620   4637     1
   4623   4630     1
   4623   4640     1
   4623   4647     1
   4626   4633     1
   4626   4643     1
   4627   4634     1
   4627   4635     1
   4627   4640     1
   4630   4637     1
   4637   4644     1
   4637   4645     1
   4648   4657     1
   4651   4658     1
   4651   4668     1
   4654   4678     1
   4654   4661     1
   4654   4671     1
   4657   4664     1
   4657   4674     1
   4658   4671     1
   4658   4665     1
   4658   4666     1
   4661   4668     1
   4668   4675     1
   4668   4676     1
   4679   4688     1
   4682   4689     1
   4682   4699     1
   4685   4692     1
   4685   4702     1
   4685   4709     1
   4688   4695     1
   4688   4705     1
   4689   4696     1
   4689   4697     1
   4689   4702     1
   4692   4699     1
   4699   4706     1
   4699   4707     1
   4710   4719     1
   4713   4720     1
   4713   4730     1
   4716   4740     1
   4716   4723     1
   4716   4733     1
   4719   4726     1
   4719   4736     1
   4720   4733     1
   4720   4727     1
   4720   4728     1
   4723   4730     1
   4730   4737     1
   4730   4738     1
   4741   4750     1
   4744   4751     1
   4744   4761     1
   4747   4754     1
   4747   4764     1
   4747   4771     1
   4750   4757     1
   4750   4767     1
   4751   4758     1
   4751   4759     1
   4751   4764     1
   4754   4761     1
   4761   4768     1
   4761   4769     1
   4772   4781     1
   4775   4782     1
   4775   4792     1
   4778   4802     1
   4778   4785     1
   4778   4795     1
   4781   4788     1
   4781   4798     1
   4782   4795     1
   4782   4789     1
   4782   4790     1
   4785   4792     1
   4792   4799     1
   4792   4800     1
   4803   4812     1
   4806   4813     1
   4806   4823     1
   4809   4816     1
   4809   4826     1
   4809   4833     1
   4812   4819     1
   4812   4829     1
   4813   4820     1
   4813   4821     1
   4813   4826     1
   4816   4823     1
   4823   4830     1
   4823   4831     1
   4834   4843     1
   4837   4844     1
   4837   4854     1
   4840   4864     1
   4840   4847     1
   4840   4857     1
   4843   4850     1
   4843   4860     1
   4844   4857     1
   4844   4851     1
   4844   4852     1
   4847   4854     1
   4854   4861     1
   4854   4862     1
   4865   4874     1
   4868   4875     1
   4868   4885     1
   4871   4878     1
   4871   4888     1
   4871   4895     1
   4874   4881     1
   4874   4891     1
   4875   4882     1
   4875   4883     1
   4875   4888     1
   4878   4885     1
   4885   4892     1
   4885   4893     1
   4896   4905     1
   4899   4906     1
   4899   4916     1
   4902   4926     1
   4902   4909     1
   4902   4919     1
   4905   4912     1
   4905   4922     1
   4906   4919     1
   4906   4913     1
   4906   4914     1
   4909   4916     1
   4916   4923     1
   4916   4924     1
   4927   4936     1
   4930   4937     1
   4930   4947     1
   4933   4940     1
   4933   4950     1
   4933   4957     1
   4936   4943     1
   4936   4953     1
   4937   4944     1
   4937   4945     1
   4937   4950     1
   4940   4947     1
   4947   4954     1
   4947   4955     1
   4958   4967     1
   4961   4968     1
   4961   4978     1
   4964   4988     1
   4964   4971     1
   4964   4981     1
   4967   4974     1
   4967   4984     1
   4968   4981     1
   4968   4975     1
   4968   4976     1
   4971   4978     1
   4978   4985     1
   4978   4986     1
   4989   4998     1
   4992   4999     1
   4992   5009     1
   4995   5002     1
   4995   5012     1
   4995   5019     1
   4998   5005     1
   4998   5015     1
   4999   5006     1
   4999   5007     1
   4999   5012     1
   5002   5009     1
   5009   5016     1
   5009   5017     1
   5020   5029     1
   5023   5030     1
   5023   5040     1
   5026   5050     1
   5026   5033     1
   5026   5043     1
   5029   5036     1
   5029   5046     1
   5030   5043     1
   5030   5037     1
   5030   5038     1
   5033   5040     1
   5040   5047     1
   5040   5048     1
   5051   5060     1
   5054   5061     1
   5054   5071     1
   5057   5064     1
   5057   5074     1
   5057   5081     1
   5060   5067     1
   5060   5077     1
   5061   5068     1
   5061   5069     1
   5061   5074     1
   5064   5071     1
   5071   5078     1
   5071   5079     1
   5082   5091     1
   5085   5092     1
   5085   5102     1
   5088   5112     1
   5088   5095     1
   5088   5105     1
   5091   5098     1
   5091   5108     1
   5092   5105     1
   5092   5099     1
   5092   5100     1
   5095   5102     1
   5102   5109     1
   5102   5110     1
   5113   5122     1
   5116   5123     1
   5116   5133     1
   5119   5126     1
   5119   5136     1
   5119   5143     1
   5122   5129     1
   5122   5139     1
   5123   5130     1
   5123   5131     1
   5123   5136     1
   5126   5133     1
   5133   5140     1
   5133   5141     1
   5144   5153     1
   5147   5154     1
   5147   5164     1
   5150   5174     1
   5150   5157     1
   5150   5167     1
   5153   5160     1
   5153   5170     1
   5154   5167     1
   5154   5161     1
   5154   5162     1
   5157   5164     1
   5164   5171     1
   5164   5172     1
   5175   5184     1
   5178   5185     1
   5178   5195     1
   5181   5188     1
   5181   5198     1
   5181   5205     1
   5184   5191     1
   5184   5201     1
   5185   5192     1
   5185   5193     1
   5185   5198     1
   5188   5195     1
   5195   5202     1
   5195   5203     1
   5206   5215     1
   5209   5216     1
   5209   5226     1
   5212   5236     1
   5212   5219     1
   5212   5229     1
   5215   5222     1
   5215   5232     1
   5216   5229     1
   5216   5223     1
   5216   5224     1
   5219   5226     1
   5226   5233     1
   5226   5234     1
   5237   5246     1
   5240   5247     1
   5240   5257     1
   5243   5250     1
   5243   5260     1
   5243   5267     1
   5246   5253     1
   5246   5263     1
   5247   5254     1
   5247   5255     1
   5247   5260     1
   5250   5257     1
   5257   5264     1
   5257   5265     1
   5268   5277     1
   5271   5278     1
   5271   5288     1
   5274   5298     1
   5274   5281     1
   5274   5291     1
   5277   5284     1
   5277   5294     1
   5278   5291     1
   5278   5285     1
   5278   5286     1
   5281   5288     1
   5288   5295     1
   5288   5296     1
   5299   5308     1
   5302   5309     1
   5302   5319     1
   5305   5312     1
   5305   5322     1
   5305   5329     1
   5308   5315     1
   5308   5325     1
   5309   5316     1
   5309   5317     1
   5309   5322     1
   5312   5319     1
   5319   5326     1
   5319   5327     1
   5330   5339     1
   5333   5340     1
   5333   5350     1
   5336   5360     1
   5336   5343     1
   5336   5353     1
   5339   5346     1
   5339   5356     1
   5340   5353     1
   5340   5347     1
   5340   5348     1
   5343   5350     1
   5350   5357     1
   5350   5358     1
   5361   5370     1
   5364   5371     1
   5364   5381     1
   5367   5374     1
   5367   5384     1
   5367   5391     1
   5370   5377     1
   5370   5387     1
   5371   5378     1
   5371   5379     1
   5371   5384     1
   5374   5381     1
   5381   5388     1
   5381   5389     1
   5392   5401     1
   5395   5402     1
   5395   5412     1
   5398   5422     1
   5398   5405     1
   5398   5415     1
   5401   5408     1
   5401   5418     1
   5402   5415     1
   5402   5409     1
   5402   5410     1
   5405   5412     1
   5412   5419     1
   5412   5420     1
   5423   5432     1
   5426   5433     1
   5426   5443     1
   5429   5436     1
   5429   5446     1
   5429   5453     1
   5432   5439     1
   5432   5449     1
   5433   5440     1
   5433   5441     1
   5433   5446     1
   5436   5443     1
   5443   5450     1
   5443   5451     1
   5454   5463     1
   5457   5464     1
   5457   5474     1
   5460   5484     1
   5460   5467     1
   5460   5477     1
   5463   5470     1
   5463   5480     1
   5464   5477     1
   5464   5471     1
   5464   5472     1
   5467   5474     1
   5474   5481     1
   5474   5482     1
   5485   5494     1
   5488   5495     1
   5488   5505     1
   5491   5498     1
   5491   5508     1
   5491   5515     1
   5494   5501     1
   5494   5511     1
   5495   5502     1
   5495   5503     1
   5495   5508     1
   5498   5505     1
   5505   5512     1
   5505   5513     1
   5516   5525     1
   5519   5526     1
   5519   5536     1
   5522   5546     1
   5522   5529     1
   5522   5539     1
   5525   5532     1
   5525   5542     1
   5526   5539     1
   5526   5533     1
   5526   5534     1
   5529   5536     1
   5536   5543     1
   5536   5544     1
   5547   5556     1
   5550   5557     1
   5550   5567     1
   5553   5560     1
   5553   5570     1
   5553   5577     1
   5556   5563     1
   5556   5573     1
   5557   5564     1
   5557   5565     1
   5557   5570     1
   5560   5567     1
   5567   5574     1
   5567   5575     1
   5578   5587     1
   5581   5588     1
   5581   5598     1
   5584   5608     1
   5584   5591     1
   5584   5601     1
   5587   5594     1
   5587   5604     1
   5588   5601     1
   5588   5595     1
   5588   5596     1
   5591   5598     1
   5598   5605     1
   5598   5606     1
   5609   5618     1
   5612   5619     1
   5612   5629     1
   5615   5622     1
   5615   5632     1
   5615   5639     1
   5618   5625     1
   5618   5635     1
   5619   5626     1
   5619   5627     1
   5619   5632     1
   5622   5629     1
   5629   5636     1
   5629   5637     1
   5640   5649     1
   5643   5650     1
   5643   5660     1
   5646   5670     1
   5646   5653     1
   5646   5663     1
   5649   5656     1
   5649   5666     1
   5650   5663     1
   5650   5657     1
   5650   5658     1
   5653   5660     1
   5660   5667     1
   5660   5668     1
   5671   5680     1
   5674   5681     1
   5674   5691     1
   5677   5684     1
   5677   5694     1
   5677   5701     1
   5680   5687     1
   5680   5697     1
   5681   5688     1
   5681   5689     1
   5681   5694     1
   5684   5691     1
   5691   5698     1
   5691   5699     1
      1     15     1
      1     16     1
      1     18     1
      1     19     1
      1     12     1
      1     13     1
      2      6     1
      2      7     1
      2      9     1
      2     10     1
      2     27     1
      2     28     1
      5      3     1
      8      3     1
      3     26     1
      3     15     1
      3     16     1
      5      4     1
      8      4     1
      4     26     1
      4     15     1
      4     16     1
      5      9     1
      5     10     1
      5     21     1
      5     22     1
      8      6     1
      6     20     1
      6     18     1
      6     19     1
      8      7     1
      7     20     1
      7     18     1
      7     19     1
      8     24     1
      8     25     1
      9     23     1
      9     12     1
      9     13     1
     10     23     1
     10     12     1
     10     13     1
     12     86     1
     12     24     1
     12     25     1
     13     86     1
     13     24     1
     13     25     1
     15    115     1
     15     27     1
     15     28     1
     16    115     1
     16     27     1
     16     28     1
     18     57     1
     18     21     1
     18     22     1
     19     57     1
     19     21     1
     19     22     1
     20     49     1
     20     50     1
     21     48     1
     22     48     1
     23     78     1
     23     79     1
     24     77     1
     25     77     1
     26    107     1
     26    108     1
     27    106     1
     28    106     1
     29     43     1
     29     44     1
     29     46     1
     29     47     1
     29     40     1
     29     41     1
     30     34     1
     30     35     1
     30     37     1
     30     38     1
     30     55     1
     30     56     1
     31     33     1
     31     36     1
     31     54     1
     31     43     1
     31     44     1
     32     33     1
     32     36     1
     32     54     1
     32     43     1
     32     44     1
     33     37     1
     33     38     1
     33     52     1
     33     53     1
     34     36     1
     34     51     1
     34     46     1
     34     47     1
     35     36     1
     35     51     1
     35     46     1
     35     47     1
     36     49     1
     36     50     1
     37     48     1
     37     40     1
     37     41     1
     38     48     1
     38     40     1
     38     41     1
     40     57     1
     40     49     1
     40     50     1
     41     57     1
     41     49     1
     41     50     1
     43    173     1
     43     55     1
     43     56     1
     44    173     1
     44     55     1
     44     56     1
     46    144     1
     46     52     1
     46     53     1
     47    144     1
     47     52     1
     47     53     1
     51    136     1
     51    137     1
     52    135     1
     53    135     1
     54    165     1
     54    166     1
     55    164     1
     56    164     1
     58     72     1
     58     73     1
     58     75     1
     58     76     1
     58     69     1
     58     70     1
     59     63     1
     59     64     1
     59     66     1
     59     67     1
     59     84     1
     59     85     1
     60     62     1
     60     65     1
     60     83     1
     60     72     1
     60     73     1
     61     62     1
     61     65     1
     61     83     1
     61     72     1
     61     73     1
     62     66     1
     62     67     1
     62     81     1
     62     82     1
     63     65     1
     63     80     1
     63     75     1
     63     76     1
     64     65     1
     64     80     1
     64     75     1
     64     76     1
     65     78     1
     65     79     1
     66     77     1
     66     69     1
     66     70     1
     67     77     1
     67     69     1
     67     70     1
     69     86     1
     69     78     1
     69     79     1
     70     86     1
     70     78     1
     70     79     1
     72    231     1
     72     84     1
     72     85     1
     73    231     1
     73     84     1
     73     85     1
     75    202     1
     75     81     1
     75     82     1
     76    202     1
     76     81     1
     76     82     1
     80    194     1
     80    195     1
     81    193     1
     82    193     1
     83    223     1
     83    224     1
     84    222     1
     85    222     1
     87    101     1
     87    102     1
     87    104     1
     87    105     1
     87     98     1
     87     99     1
     88     92     1
     88     93     1
     88     95     1
     88     96     1
     88    113     1
     88    114     1
     89     91     1
     89     94     1
     89    112     1
     89    101     1
     89    102     1
     90     91     1
     90     94     1
     90    112     1
     90    101     1
     90    102     1
     91     95     1
     91     96     1
     91    110     1
     91    111     1
     92     94     1
     92    109     1
     92    104     1
     92    105     1
     93     94     1
     93    109     1
     93    104     1
     93    105     1
     94    107     1
     94    108     1
     95    106     1
     95     98     1
     95     99     1
     96    106     1
     96     98     1
     96     99     1
     98    115     1
     98    107     1
     98    108     1
     99    115     1
     99    107     1
     99    108     1
    101    289     1
    101    113     1
    101    114     1
    102    289     1
    102    113     1
    102    114     1
    104    260     1
    104    110     1
    104    111     1
    105    260     1
    105    110     1
    105    111     1
    109    252     1
    109    253     1
    110    251     1
    111    251     1
    112    281     1
    112    282     1
    113    280     1
    114    280     1
    116    130     1
    116    131     1
    116    133     1
    116    134     1
    116    127     1
    116    128     1
    117    121     1
    117    122     1
    117    124     1
    117    125     1
    117    142     1
    117    143     1
    118    120     1
    118    123     1
    118    141     1
    118    130     1
    118    131     1
    119    120     1
    119    123     1
    119    141     1
    119    130     1
    119    131     1
    120    124     1
    120    125     1
    120    139     1
    120    140     1
    121    123     1
    121    138     1
    121    133     1
    121    134     1
    122    123     1
    122    138     1
    122    133     1
    122    134     1
    123    136     1
    123    137     1
    124    135     1
    124    127     1
    124    128     1
    125    135     1
    125    127     1
    125    128     1
    127    144     1
    127    136     1
    127    137     1
    128    144     1
    128    136     1
    128    137     1
    130    347     1
    130    142     1
    130    143     1
    131    347     1
    131    142     1
    131    143     1
    133    318     1
    133    139     1
    133    140     1
    134    318     1
    134    139     1
    134    140     1
    138    310     1
    138    311     1
    139    309     1
    140    309     1
    141    339     1
    141    340     1
    142    338     1
    143    338     1
    145    159     1
    145    160     1
    145    162     1
    145    163     1
    145    156     1
    145    157     1
    146    150     1
    146    151     1
    146    153     1
    146    154     1
    146    171     1
    146    172     1
    147    149     1
    147    152     1
    147    170     1
    147    159     1
    147    160     1
    148    149     1
    148    152     1
    148    170     1
    148    159     1
    148    160     1
    149    153     1
    149    154     1
    149    168     1
    149    169     1
    150    152     1
    150    167     1
    150    162     1
    150    163     1
    151    152     1
    151    167     1
    151    162     1
    151    163     1
    152    165     1
    152    166     1
    153    164     1
    153    156     1
    153    157     1
    154    164     1
    154    156     1
    154    157     1
    156    173     1
    156    165     1
    156    166     1
    157    173     1
    157    165     1
    157    166     1
    159    405     1
    159    171     1
    159    172     1
    160    405     1
    160    171     1
    160    172     1
    162    376     1
    162    168     1
    162    169     1
    163    376     1
    163    168     1
    163    169     1
    167    368     1
    167    369     1
    168    367     1
    169    367     1
    170    397     1
    170    398     1
    171    396     1
    172    396     1
    174    188     1
    174    189     1
    174    191     1
    174    192     1
    174    185     1
    174    186     1
    175    179     1
    175    180     1
    175    182     1
    175    183     1
    175    200     1
    175    201     1
    176    178     1
    176    181     1
    176    199     1
    176    188     1
    176    189     1
    177    178     1
    177    181     1
    177    199     1
    177    188     1
    177    189     1
    178    182     1
    178    183     1
    178    197     1
    178    198     1
    179    181     1
    179    196     1
    179    191     1
    179    192     1
    180    181     1
    180    196     1
    180    191     1
    180    192     1
    181    194     1
    181    195     1
    182    193     1
    182    185     1
    182    186     1
    183    193     1
    183    185     1
    183    186     1
    185    202     1
    185    194     1
    185    195     1
    186    202     1
    186    194     1
    186    195     1
    188    463     1
    188    200     1
    188    201     1
    189    463     1
    189    200     1
    189    201     1
    191    434     1
    191    197     1
    191    198     1
    192    434     1
    192    197     1
    192    198     1
    196    426     1
    196    427     1
    197    425     1
    198    425     1
    199    455     1
    199    456     1
    200    454     1
    201    454     1
    203    217     1
    203    218     1
    203    220     1
    203    221     1
    203    214     1
    203    215     1
    204    208     1
    204    209     1
    204    211     1
    204    212     1
    204    229     1
    204    230     1
    205    207     1
    205    210     1
    205    228     1
    205    217     1
    205    218     1
    206    207     1
    206    210     1
    206    228     1
    206    217     1
    206    218     1
    207    211     1
    207    212     1
    207    226     1
    207    227     1
    208    210     1
    208    225     1
    208    220     1
    208    221     1
    209    210     1
    209    225     1
    209    220     1
    209    221     1
    210    223     1
    210    224     1
    211    222     1
    211    214     1
    211    215     1
    212    222     1
    212    214     1
    212    215     1
    214    231     1
    214    223     1
    214    224     1
    215    231     1
    215    223     1
    215    224     1
    217    521     1
    217    229     1
    217    230     1
    218    521     1
    218    229     1
    218    230     1
    220    492     1
    220    226     1
    220    227     1
    221    492     1
    221    226     1
    221    227     1
    225    484     1
    225    485     1
    226    483     1
    227    483     1
    228    513     1
    228    514     1
    229    512     1
    230    512     1
    232    246     1
    232    247     1
    232    249     1
    232    250     1
    232    243     1
    232    244     1
    233    237     1
    233    238     1
    233    240     1
    233    241     1
    233    258     1
    233    259     1
    234    236     1
    234    239     1
    234    257     1
    234    246     1
    234    247     1
    235    236     1
    235    239     1
    235    257     1
    235    246     1
    235    247     1
    236    240     1
    236    241     1
    236    255     1
    236    256     1
    237    239     1
    237    254     1
    237    249     1
    237    250     1
    238    239     1
    238    254     1
    238    249     1
    238    250     1
    239    252     1
    239    253     1
    240    251     1
    240    243     1
    240    244     1
    241    251     1
    241    243     1
    241    244     1
    243    260     1
    243    252     1
    243    253     1
    244    260     1
    244    252     1
    244    253     1
    246    579     1
    246    258     1
    246    259     1
    247    579     1
    247    258     1
    247    259     1
    249    550     1
    249    255     1
    249    256     1
    250    550     1
    250    255     1
    250    256     1
    254    542     1
    254    543     1
    255    541     1
    256    541     1
    257    571     1
    257    572     1
    258    570     1
    259    570     1
    261    275     1
    261    276     1
    261    278     1
    261    279     1
    261    272     1
    261    273     1
    262    266     1
    262    267     1
    262    269     1
    262    270     1
    262    287     1
    262    288     1
    263    265     1
    263    268     1
    263    286     1
    263    275     1
    263    276     1
    264    265     1
    264    268     1
    264    286     1
    264    275     1
    264    276     1
    265    269     1
    265    270     1
    265    284     1
    265    285     1
    266    268     1
    266    283     1
    266    278     1
    266    279     1
    267    268     1
    267    283     1
    267    278     1
    267    279     1
    268    281     1
    268    282     1
    269    280     1
    269    272     1
    269    273     1
    270    280     1
    270    272     1
    270    273     1
    272    289     1
    272    281     1
    272    282     1
    273    289     1
    273    281     1
    273    282     1
    275    637     1
    275    287     1
    275    288     1
    276    637     1
    276    287     1
    276    288     1
    278    608     1
    278    284     1
    278    285     1
    279    608     1
    279    284     1
    279    285     1
    283    600     1
    283    601     1
    284    599     1
    285    599     1
    286    629     1
    286    630     1
    287    628     1
    288    628     1
    290    304     1
    290    305     1
    290    307     1
    290    308     1
    290    301     1
    290    302     1
    291    295     1
    291    296     1
    291    298     1
    291    299     1
    291    316     1
    291    317     1
    292    294     1
    292    297     1
    292    315     1
    292    304     1
    292    305     1
    293    294     1
    293    297     1
    293    315     1
    293    304     1
    293    305     1
    294    298     1
    294    299     1
    294    313     1
    294    314     1
    295    297     1
    295    312     1
    295    307     1
    295    308     1
    296    297     1
    296    312     1
    296    307     1
    296    308     1
    297    310     1
    297    311     1
    298    309     1
    298    301     1
    298    302     1
    299    309     1
    299    301     1
    299    302     1
    301    318     1
    301    310     1
    301    311     1
    302    318     1
    302    310     1
    302    311     1
    304    695     1
    304    316     1
    304    317     1
    305    695     1
    305    316     1
    305    317     1
    307    666     1
    307    313     1
    307    314     1
    308    666     1
    308    313     1
    308    314     1
    312    658     1
    312    659     1
    313    657     1
    314    657     1
    315    687     1
    315    688     1
    316    686     1
    317    686     1
    319    333     1
    319    334     1
    319    336     1
    319    337     1
    319    330     1
    319    331     1
    320    324     1
    320    325     1
    320    327     1
    320    328     1
    320    345     1
    320    346     1
    321    323     1
    321    326     1
    321    344     1
    321    333     1
    321    334     1
    322    323     1
    322    326     1
    322    344     1
    322    333     1
    322    334     1
    323    327     1
    323    328     1
    323    342     1
    323    343     1
    324    326     1
    324    341     1
    324    336     1
    324    337     1
    325    326     1
    325    341     1
    325    336     1
    325    337     1
    326    339     1
    326    340     1
    327    338     1
    327    330     1
    327    331     1
    328    338     1
    328    330     1
    328    331     1
    330    347     1
    330    339     1
    330    340     1
    331    347     1
    331    339     1
    331    340     1
    333    753     1
    333    345     1
    333    346     1
    334    753     1
    334    345     1
    334    346     1
    336    724     1
    336    342     1
    336    343     1
    337    724     1
    337    342     1
    337    343     1
    341    716     1
    341    717     1
    342    715     1
    343    715     1
    344    745     1
    344    746     1
    345    744     1
    346    744     1
    348    362     1
    348    363     1
    348    365     1
    348    366     1
    348    359     1
    348    360     1
    349    353     1
    349    354     1
    349    356     1
    349    357     1
    349    374     1
    349    375     1
    350    352     1
    350    355     1
    350    373     1
    350    362     1
    350    363     1
    351    352     1
    351    355     1
    351    373     1
    351    362     1
    351    363     1
    352    356     1
    352    357     1
    352    371     1
    352    372     1
    353    355     1
    353    370     1
    353    365     1
    353    366     1
    354    355     1
    354    370     1
    354    365     1
    354    366     1
    355    368     1
    355    369     1
    356    367     1
    356    359     1
    356    360     1
    357    367     1
    357    359     1
    357    360     1
    359    376     1
    359    368     1
    359    369     1
    360    376     1
    360    368     1
    360    369     1
    362    811     1
    362    374     1
    362    375     1
    363    811     1
    363    374     1
    363    375     1
    365    782     1
    365    371     1
    365    372     1
    366    782     1
    366    371     1
    366    372     1
    370    774     1
    370    775     1
    371    773     1
    372    773     1
    373    803     1
    373    804     1
    374    802     1
    375    802     1
    377    391     1
    377    392     1
    377    394     1
    377    395     1
    377    388     1
    377    389     1
    378    382     1
    378    383     1
    378    385     1
    378    386     1
    378    403     1
    378    404     1
    379    381     1
    379    384     1
    379    402     1
    379    391     1
    379    392     1
    380    381     1
    380    384     1
    380    402     1
    380    391     1
    380    392     1
    381    385     1
    381    386     1
    381    400     1
    381    401     1
    382    384     1
    382    399     1
    382    394     1
    382    395     1
    383    384     1
    383    399     1
    383    394     1
    383    395     1
    384    397     1
    384    398     1
    385    396     1
    385    388     1
    385    389     1
    386    396     1
    386    388     1
    386    389     1
    388    405     1
    388    397     1
    388    398     1
    389    405     1
    389    397     1
    389    398     1
    391    869     1
    391    403     1
    391    404     1
    392    869     1
    392    403     1
    392    404     1
    394    840     1
    394    400     1
    394    401     1
    395    840     1
    395    400     1
    395    401     1
    399    832     1
    399    833     1
    400    831     1
    401    831     1
    402    861     1
    402    862     1
    403    860     1
    404    860     1
    406    420     1
    406    421     1
    406    423     1
    406    424     1
    406    417     1
    406    418     1
    407    411     1
    407    412     1
    407    414     1
    407    415     1
    407    432     1
    407    433     1
    408    410     1
    408    413     1
    408    431     1
    408    420     1
    408    421     1
    409    410     1
    409    413     1
    409    431     1
    409    420     1
    409    421     1
    410    414     1
    410    415     1
    410    429     1
    410    430     1
    411    413     1
    411    428     1
    411    423     1
    411    424     1
    412    413     1
    412    428     1
    412    423     1
    412    424     1
    413    426     1
    413    427     1
    414    425     1
    414    417     1
    414    418     1
    415    425     1
    415    417     1
    415    418     1
    417    434     1
    417    426     1
    417    427     1
    418    434     1
    418    426     1
    418    427     1
    420    927     1
    420    432     1
    420    433     1
    421    927     1
    421    432     1
    421    433     1
    423    898     1
    423    429     1
    423    430     1
    424    898     1
    424    429     1
    424    430     1
    428    890     1
    428    891     1
    429    889     1
    430    889     1
    431    919     1
    431    920     1
    432    918     1
    433    918     1
    435    449     1
    435    450     1
    435    452     1
    435    453     1
    435    446     1
    435    447     1
    436    440     1
    436    441     1
    436    443     1
    436    444     1
    436    461     1
    436    462     1
    437    439     1
    437    442     1
    437    460     1
    437    449     1
    437    450     1
    438    439     1
    438    442     1
    438    460     1
    438    449     1
    438    450     1
    439    443     1
    439    444     1
    439    458     1
    439    459     1
    440    442     1
    440    457     1
    440    452     1
    440    453     1
    441    442     1
    441    457     1
    441    452     1
    441    453     1
    442    455     1
    442    456     1
    443    454     1
    443    446     1
    443    447     1
    444    454     1
    444    446     1
    444    447     1
    446    463     1
    446    455     1
    446    456     1
    447    463     1
    447    455     1
    447    456     1
    449    985     1
    449    461     1
    449    462     1
    450    985     1
    450    461     1
    450    462     1
    452    956     1
    452    458     1
    452    459     1
    453    956     1
    453    458     1
    453    459     1
    457    948     1
    457    949     1
    458    947     1
    459    947     1
    460    977     1
    460    978     1
    461    976     1
    462    976     1
    464    478     1
    464    479     1
    464    481     1
    464    482     1
    464    475     1
    464    476     1
    465    469     1
    465    470     1
    465    472     1
    465    473     1
    465    490     1
    465    491     1
    466    468     1
    466    471     1
    466    489     1
    466    478     1
    466    479     1
    467    468     1
    467    471     1
    467    489     1
    467    478     1
    467    479     1
    468    472     1
    468    473     1
    468    487     1
    468    488     1
    469    471     1
    469    486     1
    469    481     1
    469    482     1
    470    471     1
    470    486     1
    470    481     1
    470    482     1
    471    484     1
    471    485     1
    472    483     1
    472    475     1
    472    476     1
    473    483     1
    473    475     1
    473    476     1
    475    492     1
    475    484     1
    475    485     1
    476    492     1
    476    484     1
    476    485     1
    478   1043     1
    478    490     1
    478    491     1
    479   1043     1
    479    490     1
    479    491     1
    481   1014     1
    481    487     1
    481    488     1
    482   1014     1
    482    487     1
    482    488     1
    486   1006     1
    486   1007     1
    487   1005     1
    488   1005     1
    489   1035     1
    489   1036     1
    490   1034     1
    491   1034     1
    493    507     1
    493    508     1
    493    510     1
    493    511     1
    493    504     1
    493    505     1
    494    498     1
    494    499     1
    494    501     1
    494    502     1
    494    519     1
    494    520     1
    495    497     1
    495    500     1
    495    518     1
    495    507     1
    495    508     1
    496    497     1
    496    500     1
    496    518     1
    496    507     1
    496    508     1
    497    501     1
    497    502     1
    497    516     1
    497    517     1
    498    500     1
    498    515     1
    498    510     1
    498    511     1
    499    500     1
    499    515     1
    499    510     1
    499    511     1
    500    513     1
    500    514     1
    501    512     1
    501    504     1
    501    505     1
    502    512     1
    502    504     1
    502    505     1
    504    521     1
    504    513     1
    504    514     1
    505    521     1
    505    513     1
    505    514     1
    507   1101     1
    507    519     1
    507    520     1
    508   1101     1
    508    519     1
    508    520     1
    510   1072     1
    510    516     1
    510    517     1
    511   1072     1
    511    516     1
    511    517     1
    515   1064     1
    515   1065     1
    516   1063     1
    517   1063     1
    518   1093     1
    518   1094     1
    519   1092     1
    520   1092     1
    522    536     1
    522    537     1
    522    539     1
    522    540     1
    522    533     1
    522    534     1
    523    527     1
    523    528     1
    523    530     1
    523    531     1
    523    548     1
    523    549     1
    524    526     1
    524    529     1
    524    547     1
    524    536     1
    524    537     1
    525    526     1
    525    529     1
    525    547     1
    525    536     1
    525    537     1
    526    530     1
    526    531     1
    526    545     1
    526    546     1
    527    529     1
    527    544     1
    527    539     1
    527    540     1
    528    529     1
    528    544     1
    528    539     1
    528    540     1
    529    542     1
    529    543     1
    530    541     1
    530    533     1
    530    534     1
    531    541     1
    531    533     1
    531    534     1
    533    550     1
    533    542     1
    533    543     1
    534    550     1
    534    542     1
    534    543     1
    536   1159     1
    536    548     1
    536    549     1
    537   1159     1
    537    548     1
    537    549     1
    539   1130     1
    539    545     1
    539    546     1
    540   1130     1
    540    545     1
    540    546     1
    544   1122     1
    544   1123     1
    545   1121     1
    546   1121     1
    547   1151     1
    547   1152     1
    548   1150     1
    549   1150     1
    551    565     1
    551    566     1
    551    568     1
    551    569     1
    551    562     1
    551    563     1
    552    556     1
    552    557     1
    552    559     1
    552    560     1
    552    577     1
    552    578     1
    553    555     1
    553    558     1
    553    576     1
    553    565     1
    553    566     1
    554    555     1
    554    558     1
    554    576     1
    554    565     1
    554    566     1
    555    559     1
    555    560     1
    555    574     1
    555    575     1
    556    558     1
    556    573     1
    556    568     1
    556    569     1
    557    558     1
    557    573     1
    557    568     1
    557    569     1
    558    571     1
    558    572     1
    559    570     1
    559    562     1
    559    563     1
    560    570     1
    560    562     1
    560    563     1
    562    579     1
    562    571     1
    562    572     1
    563    579     1
    563    571     1
    563    572     1
    565   1217     1
    565    577     1
    565    578     1
    566   1217     1
    566    577     1
    566    578     1
    568   1188     1
    568    574     1
    568    575     1
    569   1188     1
    569    574     1
    569    575     1
    573   1180     1
    573   1181     1
    574   1179     1
    575   1179     1
    576   1209     1
    576   1210     1
    577   1208     1
    578   1208     1
    580    594     1
    580    595     1
    580    597     1
    580    598     1
    580    591     1
    580    592     1
    581    585     1
    581    586     1
    581    588     1
    581    589     1
    581    606     1
    581    607     1
    582    584     1
    582    587     1
    582    605     1
    582    594     1
    582    595     1
    583    584     1
    583    587     1
    583    605     1
    583    594     1
    583    595     1
    584    588     1
    584    589     1
    584    603     1
    584    604     1
    585    587     1
    585    602     1
    585    597     1
    585    598     1
    586    587     1
    586    602     1
    586    597     1
    586    598     1
    587    600     1
    587    601     1
    588    599     1
    588    591     1
    588    592     1
    589    599     1
    589    591     1
    589    592     1
    591    608     1
    591    600     1
    591    601     1
    592    608     1
    592    600     1
    592    601     1
    594   1275     1
    594    606     1
    594    607     1
    595   1275     1
    595    606     1
    595    607     1
    597   1246     1
    597    603     1
    597    604     1
    598   1246     1
    598    603     1
    598    604     1
    602   1238     1
    602   1239     1
    603   1237     1
    604   1237     1
    605   1267     1
    605   1268     1
    606   1266     1
    607   1266     1
    609    623     1
    609    624     1
    609    626     1
    609    627     1
    609    620     1
    609    621     1
    610    614     1
    610    615     1
    610    617     1
    610    618     1
    610    635     1
    610    636     1
    611    613     1
    611    616     1
    611    634     1
    611    623     1
    611    624     1
    612    613     1
    612    616     1
    612    634     1
    612    623     1
    612    624     1
    613    617     1
    613    618     1
    613    632     1
    613    633     1
    614    616     1
    614    631     1
    614    626     1
    614    627     1
    615    616     1
    615    631     1
    615    626     1
    615    627     1
    616    629     1
    616    630     1
    617    628     1
    617    620     1
    617    621     1
    618    628     1
    618    620     1
    618    621     1
    620    637     1
    620    629     1
    620    630     1
    621    637     1
    621    629     1
    621    630     1
    623   1333     1
    623    635     1
    623    636     1
    624   1333     1
    624    635     1
    624    636     1
    626   1304     1
    626    632     1
    626    633     1
    627   1304     1
    627    632     1
    627    633     1
    631   1296     1
    631   1297     1
    632   1295     1
    633   1295     1
    634   1325     1
    634   1326     1
    635   1324     1
    636   1324     1
    638    652     1
    638    653     1
    638    655     1
    638    656     1
    638    649     1
    638    650     1
    639    643     1
    639    644     1
    639    646     1
    639    647     1
    639    664     1
    639    665     1
    640    642     1
    640    645     1
    640    663     1
    640    652     1
    640    653     1
    641    642     1
    641    645     1
    641    663     1
    641    652     1
    641    653     1
    642    646     1
    642    647     1
    642    661     1
    642    662     1
    643    645     1
    643    660     1
    643    655     1
    643    656     1
    644    645     1
    644    660     1
    644    655     1
    644    656     1
    645    658     1
    645    659     1
    646    657     1
    646    649     1
    646    650     1
    647    657     1
    647    649     1
    647    650     1
    649    666     1
    649    658     1
    649    659     1
    650    666     1
    650    658     1
    650    659     1
    652   1391     1
    652    664     1
    652    665     1
    653   1391     1
    653    664     1
    653    665     1
    655   1362     1
    655    661     1
    655    662     1
    656   1362     1
    656    661     1
    656    662     1
    660   1354     1
    660   1355     1
    661   1353     1
    662   1353     1
    663   1383     1
    663   1384     1
    664   1382     1
    665   1382     1
    667    681     1
    667    682     1
    667    684     1
    667    685     1
    667    678     1
    667    679     1
    668    672     1
    668    673     1
    668    675     1
    668    676     1
    668    693     1
    668    694     1
    669    671     1
    669    674     1
    669    692     1
    669    681     1
    669    682     1
    670    671     1
    670    674     1
    670    692     1
    670    681     1
    670    682     1
    671    675     1
    671    676     1
    671    690     1
    671    691     1
    672    674     1
    672    689     1
    672    684     1
    672    685     1
    673    674     1
    673    689     1
    673    684     1
    673    685     1
    674    687     1
    674    688     1
    675    686     1
    675    678     1
    675    679     1
    676    686     1
    676    678     1
    676    679     1
    678    695     1
    678    687     1
    678    688     1
    679    695     1
    679    687     1
    679    688     1
    681   1449     1
    681    693     1
    681    694     1
    682   1449     1
    682    693     1
    682    694     1
    684   1420     1
    684    690     1
    684    691     1
    685   1420     1
    685    690     1
    685    691     1
    689   1412     1
    689   1413     1
    690   1411     1
    691   1411     1
    692   1441     1
    692   1442     1
    693   1440     1
    694   1440     1
    696    710     1
    696    711     1
    696    713     1
    696    714     1
    696    707     1
    696    708     1
    697    701     1
    697    702     1
    697    704     1
    697    705     1
    697    722     1
    697    723     1
    698    700     1
    698    703     1
    698    721     1
    698    710     1
    698    711     1
    699    700     1
    699    703     1
    699    721     1
    699    710     1
    699    711     1
    700    704     1
    700    705     1
    700    719     1
    700    720     1
    701    703     1
    701    718     1
    701    713     1
    701    714     1
    702    703     1
    702    718     1
    702    713     1
    702    714     1
    703    716     1
    703    717     1
    704    715     1
    704    707     1
    704    708     1
    705    715     1
    705    707     1
    705    708     1
    707    724     1
    707    716     1
    707    717     1
    708    724     1
    708    716     1
    708    717     1
    710   1507     1
    710    722     1
    710    723     1
    711   1507     1
    711    722     1
    711    723     1
    713   1478     1
    713    719     1
    713    720     1
    714   1478     1
    714    719     1
    714    720     1
    718   1470     1
    718   1471     1
    719   1469     1
    720   1469     1
    721   1499     1
    721   1500     1
    722   1498     1
    723   1498     1
    725    739     1
    725    740     1
    725    742     1
    725    743     1
    725    736     1
    725    737     1
    726    730     1
    726    731     1
    726    733     1
    726    734     1
    726    751     1
    726    752     1
    727    729     1
    727    732     1
    727    750     1
    727    739     1
    727    740     1
    728    729     1
    728    732     1
    728    750     1
    728    739     1
    728    740     1
    729    733     1
    729    734     1
    729    748     1
    729    749     1
    730    732     1
    730    747     1
    730    742     1
    730    743     1
    731    732     1
    731    747     1
    731    742     1
    731    743     1
    732    745     1
    732    746     1
    733    744     1
    733    736     1
    733    737     1
    734    744     1
    734    736     1
    734    737     1
    736    753     1
    736    745     1
    736    746     1
    737    753     1
    737    745     1
    737    746     1
    739   1565     1
    739    751     1
    739    752     1
    740   1565     1
    740    751     1
    740    752     1
    742   1536     1
    742    748     1
    742    749     1
    743   1536     1
    743    748     1
    743    749     1
    747   1528     1
    747   1529     1
    748   1527     1
    749   1527     1
    750   1557     1
    750   1558     1
    751   1556     1
    752   1556     1
    754    768     1
    754    769     1
    754    771     1
    754    772     1
    754    765     1
    754    766     1
    755    759     1
    755    760     1
    755    762     1
    755    763     1
    755    780     1
    755    781     1
    756    758     1
    756    761     1
    756    779     1
    756    768     1
    756    769     1
    757    758     1
    757    761     1
    757    779     1
    757    768     1
    757    769     1
    758    762     1
    758    763     1
    758    777     1
    758    778     1
    759    761     1
    759    776     1
    759    771     1
    759    772     1
    760    761     1
    760    776     1
    760    771     1
    760    772     1
    761    774     1
    761    775     1
    762    773     1
    762    765     1
    762    766     1
    763    773     1
    763    765     1
    763    766     1
    765    782     1
    765    774     1
    765    775     1
    766    782     1
    766    774     1
    766    775     1
    768   1623     1
    768    780     1
    768    781     1
    769   1623     1
    769    780     1
    769    781     1
    771   1594     1
    771    777     1
    771    778     1
    772   1594     1
    772    777     1
    772    778     1
    776   1586     1
    776   1587     1
    777   1585     1
    778   1585     1
    779   1615     1
    779   1616     1
    780   1614     1
    781   1614     1
    783    797     1
    783    798     1
    783    800     1
    783    801     1
    783    794     1
    783    795     1
    784    788     1
    784    789     1
    784    791     1
    784    792     1
    784    809     1
    784    810     1
    785    787     1
    785    790     1
    785    808     1
    785    797     1
    785    798     1
    786    787     1
    786    790     1
    786    808     1
    786    797     1
    786    798     1
    787    791     1
    787    792     1
    787    806     1
    787    807     1
    788    790     1
    788    805     1
    788    800     1
    788    801     1
    789    790     1
    789    805     1
    789    800     1
    789    801     1
    790    803     1
    790    804     1
    791    802     1
    791    794     1
    791    795     1
    792    802     1
    792    794     1
    792    795     1
    794    811     1
    794    803     1
    794    804     1
    795    811     1
    795    803     1
    795    804     1
    797   1681     1
    797    809     1
    797    810     1
    798   1681     1
    798    809     1
    798    810     1
    800   1652     1
    800    806     1
    800    807     1
    801   1652     1
    801    806     1
    801    807     1
    805   1644     1
    805   1645     1
    806   1643     1
    807   1643     1
    808   1673     1
    808   1674     1
    809   1672     1
    810   1672     1
    812    826     1
    812    827     1
    812    829     1
    812    830     1
    812    823     1
    812    824     1
    813    817     1
    813    818     1
    813    820     1
    813    821     1
    813    838     1
    813    839     1
    814    816     1
    814    819     1
    814    837     1
    814    826     1
    814    827     1
    815    816     1
    815    819     1
    815    837     1
    815    826     1
    815    827     1
    816    820     1
    816    821     1
    816    835     1
    816    836     1
    817    819     1
    817    834     1
    817    829     1
    817    830     1
    818    819     1
    818    834     1
    818    829     1
    818    830     1
    819    832     1
    819    833     1
    820    831     1
    820    823     1
    820    824     1
    821    831     1
    821    823     1
    821    824     1
    823    840     1
    823    832     1
    823    833     1
    824    840     1
    824    832     1
    824    833     1
    826   1739     1
    826    838     1
    826    839     1
    827   1739     1
    827    838     1
    827    839     1
    829   1710     1
    829    835     1
    829    836     1
    830   1710     1
    830    835     1
    830    836     1
    834   1702     1
    834   1703     1
    835   1701     1
    836   1701     1
    837   1731     1
    837   1732     1
    838   1730     1
    839   1730     1
    841    855     1
    841    856     1
    841    858     1
    841    859     1
    841    852     1
    841    853     1
    842    846     1
    842    847     1
    842    849     1
    842    850     1
    842    867     1
    842    868     1
    843    845     1
    843    848     1
    843    866     1
    843    855     1
    843    856     1
    844    845     1
    844    848     1
    844    866     1
    844    855     1
    844    856     1
    845    849     1
    845    850     1
    845    864     1
    845    865     1
    846    848     1
    846    863     1
    846    858     1
    846    859     1
    847    848     1
    847    863     1
    847    858     1
    847    859     1
    848    861     1
    848    862     1
    849    860     1
    849    852     1
    849    853     1
    850    860     1
    850    852     1
    850    853     1
    852    869     1
    852    861     1
    852    862     1
    853    869     1
    853    861     1
    853    862     1
    855   1797     1
    855    867     1
    855    868     1
    856   1797     1
    856    867     1
    856    868     1
    858   1768     1
    858    864     1
    858    865     1
    859   1768     1
    859    864     1
    859    865     1
    863   1760     1
    863   1761     1
    864   1759     1
    865   1759     1
    866   1789     1
    866   1790     1
    867   1788     1
    868   1788     1
    870    884     1
    870    885     1
    870    887     1
    870    888     1
    870    881     1
    870    882     1
    871    875     1
    871    876     1
    871    878     1
    871    879     1
    871    896     1
    871    897     1
    872    874     1
    872    877     1
    872    895     1
    872    884     1
    872    885     1
    873    874     1
    873    877     1
    873    895     1
    873    884     1
    873    885     1
    874    878     1
    874    879     1
    874    893     1
    874    894     1
    875    877     1
    875    892     1
    875    887     1
    875    888     1
    876    877     1
    876    892     1
    876    887     1
    876    888     1
    877    890     1
    877    891     1
    878    889     1
    878    881     1
    878    882     1
    879    889     1
    879    881     1
    879    882     1
    881    898     1
    881    890     1
    881    891     1
    882    898     1
    882    890     1
    882    891     1
    884   1855     1
    884    896     1
    884    897     1
    885   1855     1
    885    896     1
    885    897     1
    887   1826     1
    887    893     1
    887    894     1
    888   1826     1
    888    893     1
    888    894     1
    892   1818     1
    892   1819     1
    893   1817     1
    894   1817     1
    895   1847     1
    895   1848     1
    896   1846     1
    897   1846     1
    899    913     1
    899    914     1
    899    916     1
    899    917     1
    899    910     1
    899    911     1
    900    904     1
    900    905     1
    900    907     1
    900    908     1
    900    925     1
    900    926     1
    901    903     1
    901    906     1
    901    924     1
    901    913     1
    901    914     1
    902    903     1
    902    906     1
    902    924     1
    902    913     1
    902    914     1
    903    907     1
    903    908     1
    903    922     1
    903    923     1
    904    906     1
    904    921     1
    904    916     1
    904    917     1
    905    906     1
    905    921     1
    905    916     1
    905    917     1
    906    919     1
    906    920     1
    907    918     1
    907    910     1
    907    911     1
    908    918     1
    908    910     1
    908    911     1
    910    927     1
    910    919     1
    910    920     1
    911    927     1
    911    919     1
    911    920     1
    913   1913     1
    913    925     1
    913    926     1
    914   1913     1
    914    925     1
    914    926     1
    916   1884     1
    916    922     1
    916    923     1
    917   1884     1
    917    922     1
    917    923     1
    921   1876     1
    921   1877     1
    922   1875     1
    923   1875     1
    924   1905     1
    924   1906     1
    925   1904     1
    926   1904     1
    928    942     1
    928    943     1
    928    945     1
    928    946     1
    928    939     1
    928    940     1
    929    933     1
    929    934     1
    929    936     1
    929    937     1
    929    954     1
    929    955     1
    930    932     1
    930    935     1
    930    953     1
    930    942     1
    930    943     1
    931    932     1
    931    935     1
    931    953     1
    931    942     1
    931    943     1
    932    936     1
    932    937     1
    932    951     1
    932    952     1
    933    935     1
    933    950     1
    933    945     1
    933    946     1
    934    935     1
    934    950     1
    934    945     1
    934    946     1
    935    948     1
    935    949     1
    936    947     1
    936    939     1
    936    940     1
    937    947     1
    937    939     1
    937    940     1
    939    956     1
    939    948     1
    939    949     1
    940    956     1
    940    948     1
    940    949     1
    942   1971     1
    942    954     1
    942    955     1
    943   1971     1
    943    954     1
    943    955     1
    945   1942     1
    945    951     1
    945    952     1
    946   1942     1
    946    951     1
    946    952     1
    950   1934     1
    950   1935     1
    951   1933     1
    952   1933     1
    953   1963     1
    953   1964     1
    954   1962     1
    955   1962     1
    957    971     1
    957    972     1
    957    974     1
    957    975     1
    957    968     1
    957    969     1
    958    962     1
    958    963     1
    958    965     1
    958    966     1
    958    983     1
    958    984     1
    959    961     1
    959    964     1
    959    982     1
    959    971     1
    959    972     1
    960    961     1
    960    964     1
    960    982     1
    960    971     1
    960    972     1
    961    965     1
    961    966     1
    961    980     1
    961    981     1
    962    964     1
    962    979     1
    962    974     1
    962    975     1
    963    964     1
    963    979     1
    963    974     1
    963    975     1
    964    977     1
    964    978     1
    965    976     1
    965    968     1
    965    969     1
    966    976     1
    966    968     1
    966    969     1
    968    985     1
    968    977     1
    968    978     1
    969    985     1
    969    977     1
    969    978     1
    971   2029     1
    971    983     1
    971    984     1
    972   2029     1
    972    983     1
    972    984     1
    974   2000     1
    974    980     1
    974    981     1
    975   2000     1
    975    980     1
    975    981     1
    979   1992     1
    979   1993     1
    980   1991     1
    981   1991     1
    982   2021     1
    982   2022     1
    983   2020     1
    984   2020     1
    986   1000     1
    986   1001     1
    986   1003     1
    986   1004     1
    986    997     1
    986    998     1
    987    991     1
    987    992     1
    987    994     1
    987    995     1
    987   1012     1
    987   1013     1
    988    990     1
    988    993     1
    988   1011     1
    988   1000     1
    988   1001     1
    989    990     1
    989    993     1
    989   1011     1
    989   1000     1
    989   1001     1
    990    994     1
    990    995     1
    990   1009     1
    990   1010     1
    991    993     1
    991   1008     1
    991   1003     1
    991   1004     1
    992    993     1
    992   1008     1
    992   1003     1
    992   1004     1
    993   1006     1
    993   1007     1
    994   1005     1
    994    997     1
    994    998     1
    995   1005     1
    995    997     1
    995    998     1
    997   1014     1
    997   1006     1
    997   1007     1
    998   1014     1
    998   1006     1
    998   1007     1
   1000   2087     1
   1000   1012     1
   1000   1013     1
   1001   2087     1
   1001   1012     1
   1001   1013     1
   1003   2058     1
   1003   1009     1
   1003   1010     1
   1004   2058     1
   1004   1009     1
   1004   1010     1
   1008   2050     1
   1008   2051     1
   1009   2049     1
   1010   2049     1
   1011   2079     1
   1011   2080     1
   1012   2078     1
   1013   2078     1
   1015   1029     1
   1015   1030     1
   1015   1032     1
   1015   1033     1
   1015   1026     1
   1015   1027     1
   1016   1020     1
   1016   1021     1
   1016   1023     1
   1016   1024     1
   1016   1041     1
   1016   1042     1
   1017   1019     1
   1017   1022     1
   1017   1040     1
   1017   1029     1
   1017   1030     1
   1018   1019     1
   1018   1022     1
   1018   1040     1
   1018   1029     1
   1018   1030     1
   1019   1023     1
   1019   1024     1
   1019   1038     1
   1019   1039     1
   1020   1022     1
   1020   1037     1
   1020   1032     1
   1020   1033     1
   1021   1022     1
   1021   1037     1
   1021   1032     1
   1021   1033     1
   1022   1035     1
   1022   1036     1
   1023   1034     1
   1023   1026     1
   1023   1027     1
   1024   1034     1
   1024   1026     1
   1024   1027     1
   1026   1043     1
   1026   1035     1
   1026   1036     1
   1027   1043     1
   1027   1035     1
   1027   1036     1
   1029   2145     1
   1029   1041     1
   1029   1042     1
   1030   2145     1
   1030   1041     1
   1030   1042     1
   1032   2116     1
   1032   1038     1
   1032   1039     1
   1033   2116     1
   1033   1038     1
   1033   1039     1
   1037   2108     1
   1037   2109     1
   1038   2107     1
   1039   2107     1
   1040   2137     1
   1040   2138     1
   1041   2136     1
   1042   2136     1
   1044   1058     1
   1044   1059     1
   1044   1061     1
   1044   1062     1
   1044   1055     1
   1044   1056     1
   1045   1049     1
   1045   1050     1
   1045   1052     1
   1045   1053     1
   1045   1070     1
   1045   1071     1
   1046   1048     1
   1046   1051     1
   1046   1069     1
   1046   1058     1
   1046   1059     1
   1047   1048     1
   1047   1051     1
   1047   1069     1
   1047   1058     1
   1047   1059     1
   1048   1052     1
   1048   1053     1
   1048   1067     1
   1048   1068     1
   1049   1051     1
   1049   1066     1
   1049   1061     1
   1049   1062     1
   1050   1051     1
   1050   1066     1
   1050   1061     1
   1050   1062     1
   1051   1064     1
   1051   1065     1
   1052   1063     1
   1052   1055     1
   1052   1056     1
   1053   1063     1
   1053   1055     1
   1053   1056     1
   1055   1072     1
   1055   1064     1
   1055   1065     1
   1056   1072     1
   1056   1064     1
   1056   1065     1
   1058   2203     1
   1058   1070     1
   1058   1071     1
   1059   2203     1
   1059   1070     1
   1059   1071     1
   1061   2174     1
   1061   1067     1
   1061   1068     1
   1062   2174     1
   1062   1067     1
   1062   1068     1
   1066   2166     1
   1066   2167     1
   1067   2165     1
   1068   2165     1
   1069   2195     1
   1069   2196     1
   1070   2194     1
   1071   2194     1
   1073   1087     1
   1073   1088     1
   1073   1090     1
   1073   1091     1
   1073   1084     1
   1073   1085     1
   1074   1078     1
   1074   1079     1
   1074   1081     1
   1074   1082     1
   1074   1099     1
   1074   1100     1
   1075   1077     1
   1075   1080     1
   1075   1098     1
   1075   1087     1
   1075   1088     1
   1076   1077     1
   1076   1080     1
   1076   1098     1
   1076   1087     1
   1076   1088     1
   1077   1081     1
   1077   1082     1
   1077   1096     1
   1077   1097     1
   1078   1080     1
   1078   1095     1
   1078   1090     1
   1078   1091     1
   1079   1080     1
   1079   1095     1
   1079   1090     1
   1079   1091     1
   1080   1093     1
   1080   1094     1
   1081   1092     1
   1081   1084     1
   1081   1085     1
   1082   1092     1
   1082   1084     1
   1082   1085     1
   1084   1101     1
   1084   1093     1
   1084   1094     1
   1085   1101     1
   1085   1093     1
   1085   1094     1
   1087   2261     1
   1087   1099     1
   1087   1100     1
   1088   2261     1
   1088   1099     1
   1088   1100     1
   1090   2232     1
   1090   1096     1
   1090   1097     1
   1091   2232     1
   1091   1096     1
   1091   1097     1
   1095   2224     1
   1095   2225     1
   1096   2223     1
   1097   2223     1
   1098   2253     1
   1098   2254     1
   1099   2252     1
   1100   2252     1
   1102   1116     1
   1102   1117     1
   1102   1119     1
   1102   1120     1
   1102   1113     1
   1102   1114     1
   1103   1107     1
   1103   1108     1
   1103   1110     1
   1103   1111     1
   1103   1128     1
   1103   1129     1
   1104   1106     1
   1104   1109     1
   1104   1127     1
   1104   1116     1
   1104   1117     1
   1105   1106     1
   1105   1109     1
   1105   1127     1
   1105   1116     1
   1105   1117     1
   1106   1110     1
   1106   1111     1
   1106   1125     1
   1106   1126     1
   1107   1109     1
   1107   1124     1
   1107   1119     1
   1107   1120     1
   1108   1109     1
   1108   1124     1
   1108   1119     1
   1108   1120     1
   1109   1122     1
   1109   1123     1
   1110   1121     1
   1110   1113     1
   1110   1114     1
   1111   1121     1
   1111   1113     1
   1111   1114     1
   1113   1130     1
   1113   1122     1
   1113   1123     1
   1114   1130     1
   1114   1122     1
   1114   1123     1
   1116   2319     1
   1116   1128     1
   1116   1129     1
   1117   2319     1
   1117   1128     1
   1117   1129     1
   1119   2290     1
   1119   1125     1
   1119   1126     1
   1120   2290     1
   1120   1125     1
   1120   1126     1
   1124   2282     1
   1124   2283     1
   1125   2281     1
   1126   2281     1
   1127   2311     1
   1127   2312     1
   1128   2310     1
   1129   2310     1
   1131   1145     1
   1131   1146     1
   1131   1148     1
   1131   1149     1
   1131   1142     1
   1131   1143     1
   1132   1136     1
   1132   1137     1
   1132   1139     1
   1132   1140     1
   1132   1157     1
   1132   1158     1
   1133   1135     1
   1133   1138     1
   1133   1156     1
   1133   1145     1
   1133   1146     1
   1134   1135     1
   1134   1138     1
   1134   1156     1
   1134   1145     1
   1134   1146     1
   1135   1139     1
   1135   1140     1
   1135   1154     1
   1135   1155     1
   1136   1138     1
   1136   1153     1
   1136   1148     1
   1136   1149     1
   1137   1138     1
   1137   1153     1
   1137   1148     1
   1137   1149     1
   1138   1151     1
   1138   1152     1
   1139   1150     1
   1139   1142     1
   1139   1143     1
   1140   1150     1
   1140   1142     1
   1140   1143     1
   1142   1159     1
   1142   1151     1
   1142   1152     1
   1143   1159     1
   1143   1151     1
   1143   1152     1
   1145   2377     1
   1145   1157     1
   1145   1158     1
   1146   2377     1
   1146   1157     1
   1146   1158     1
   1148   2348     1
   1148   1154     1
   1148   1155     1
   1149   2348     1
   1149   1154     1
   1149   1155     1
   1153   2340     1
   1153   2341     1
   1154   2339     1
   1155   2339     1
   1156   2369     1
   1156   2370     1
   1157   2368     1
   1158   2368     1
   1160   1174     1
   1160   1175     1
   1160   1177     1
   1160   1178     1
   1160   1171     1
   1160   1172     1
   1161   1165     1
   1161   1166     1
   1161   1168     1
   1161   1169     1
   1161   1186     1
   1161   1187     1
   1162   1164     1
   1162   1167     1
   1162   1185     1
   1162   1174     1
   1162   1175     1
   1163   1164     1
   1163   1167     1
   1163   1185     1
   1163   1174     1
   1163   1175     1
   1164   1168     1
   1164   1169     1
   1164   1183     1
   1164   1184     1
   1165   1167     1
   1165   1182     1
   1165   1177     1
   1165   1178     1
   1166   1167     1
   1166   1182     1
   1166   1177     1
   1166   1178     1
   1167   1180     1
   1167   1181     1
   1168   1179     1
   1168   1171     1
   1168   1172     1
   1169   1179     1
   1169   1171     1
   1169   1172     1
   1171   1188     1
   1171   1180     1
   1171   1181     1
   1172   1188     1
   1172   1180     1
   1172   1181     1
   1174   2435     1
   1174   1186     1
   1174   1187     1
   1175   2435     1
   1175   1186     1
   1175   1187     1
   1177   2406     1
   1177   1183     1
   1177   1184     1
   1178   2406     1
   1178   1183     1
   1178   1184     1
   1182   2398     1
   1182   2399     1
   1183   2397     1
   1184   2397     1
   1185   2427     1
   1185   2428     1
   1186   2426     1
   1187   2426     1
   1189   1203     1
   1189   1204     1
   1189   1206     1
   1189   1207     1
   1189   1200     1
   1189   1201     1
   1190   1194     1
   1190   1195     1
   1190   1197     1
   1190   1198     1
   1190   1215     1
   1190   1216     1
   1191   1193     1
   1191   1196     1
   1191   1214     1
   1191   1203     1
   1191   1204     1
   1192   1193     1
   1192   1196     1
   1192   1214     1
   1192   1203     1
   1192   1204     1
   1193   1197     1
   1193   1198     1
   1193   1212     1
   1193   1213     1
   1194   1196     1
   1194   1211     1
   1194   1206     1
   1194   1207     1
   1195   1196     1
   1195   1211     1
   1195   1206     1
   1195   1207     1
   1196   1209     1
   1196   1210     1
   1197   1208     1
   1197   1200     1
   1197   1201     1
   1198   1208     1
   1198   1200     1
   1198   1201     1
   1200   1217     1
   1200   1209     1
   1200   1210     1
   1201   1217     1
   1201   1209     1
   1201   1210     1
   1203   2493     1
   1203   1215     1
   1203   1216     1
   1204   2493     1
   1204   1215     1
   1204   1216     1
   1206   2464     1
   1206   1212     1
   1206   1213     1
   1207   2464     1
   1207   1212     1
   1207   1213     1
   1211   2456     1
   1211   2457     1
   1212   2455     1
   1213   2455     1
   1214   2485     1
   1214   2486     1
   1215   2484     1
   1216   2484     1
   1218   1232     1
   1218   1233     1
   1218   1235     1
   1218   1236     1
   1218   1229     1
   1218   1230     1
   1219   1223     1
   1219   1224     1
   1219   1226     1
   1219   1227     1
   1219   1244     1
   1219   1245     1
   1220   1222     1
   1220   1225     1
   1220   1243     1
   1220   1232     1
   1220   1233     1
   1221   1222     1
   1221   1225     1
   1221   1243     1
   1221   1232     1
   1221   1233     1
   1222   1226     1
   1222   1227     1
   1222   1241     1
   1222   1242     1
   1223   1225     1
   1223   1240     1
   1223   1235     1
   1223   1236     1
   1224   1225     1
   1224   1240     1
   1224   1235     1
   1224   1236     1
   1225   1238     1
   1225   1239     1
   1226   1237     1
   1226   1229     1
   1226   1230     1
   1227   1237     1
   1227   1229     1
   1227   1230     1
   1229   1246     1
   1229   1238     1
   1229   1239     1
   1230   1246     1
   1230   1238     1
   1230   1239     1
   1232   2551     1
   1232   1244     1
   1232   1245     1
   1233   2551     1
   1233   1244     1
   1233   1245     1
   1235   2522     1
   1235   1241     1
   1235   1242     1
   1236   2522     1
   1236   1241     1
   1236   1242     1
   1240   2514     1
   1240   2515     1
   1241   2513     1
   1242   2513     1
   1243   2543     1
   1243   2544     1
   1244   2542     1
   1245   2542     1
   1247   1261     1
   1247   1262     1
   1247   1264     1
   1247   1265     1
   1247   1258     1
   1247   1259     1
   1248   1252     1
   1248   1253     1
   1248   1255     1
   1248   1256     1
   1248   1273     1
   1248   1274     1
   1249   1251     1
   1249   1254     1
   1249   1272     1
   1249   1261     1
   1249   1262     1
   1250   1251     1
   1250   1254     1
   1250   1272     1
   1250   1261     1
   1250   1262     1
   1251   1255     1
   1251   1256     1
   1251   1270     1
   1251   1271     1
   1252   1254     1
   1252   1269     1
   1252   1264     1
   1252   1265     1
   1253   1254     1
   1253   1269     1
   1253   1264     1
   1253   1265     1
   1254   1267     1
   1254   1268     1
   1255   1266     1
   1255   1258     1
   1255   1259     1
   1256   1266     1
   1256   1258     1
   1256   1259     1
   1258   1275     1
   1258   1267     1
   1258   1268     1
   1259   1275     1
   1259   1267     1
   1259   1268     1
   1261   2609     1
   1261   1273     1
   1261   1274     1
   1262   2609     1
   1262   1273     1
   1262   1274     1
   1264   2580     1
   1264   1270     1
   1264   1271     1
   1265   2580     1
   1265   1270     1
   1265   1271     1
   1269   2572     1
   1269   2573     1
   1270   2571     1
   1271   2571     1
   1272   2601     1
   1272   2602     1
   1273   2600     1
   1274   2600     1
   1276   1290     1
   1276   1291     1
   1276   1293     1
   1276   1294     1
   1276   1287     1
   1276   1288     1
   1277   1281     1
   1277   1282     1
   1277   1284     1
   1277   1285     1
   1277   1302     1
   1277   1303     1
   1278   1280     1
   1278   1283     1
   1278   1301     1
   1278   1290     1
   1278   1291     1
   1279   1280     1
   1279   1283     1
   1279   1301     1
   1279   1290     1
   1279   1291     1
   1280   1284     1
   1280   1285     1
   1280   1299     1
   1280   1300     1
   1281   1283     1
   1281   1298     1
   1281   1293     1
   1281   1294     1
   1282   1283     1
   1282   1298     1
   1282   1293     1
   1282   1294     1
   1283   1296     1
   1283   1297     1
   1284   1295     1
   1284   1287     1
   1284   1288     1
   1285   1295     1
   1285   1287     1
   1285   1288     1
   1287   1304     1
   1287   1296     1
   1287   1297     1
   1288   1304     1
   1288   1296     1
   1288   1297     1
   1290   2667     1
   1290   1302     1
   1290   1303     1
   1291   2667     1
   1291   1302     1
   1291   1303     1
   1293   2638     1
   1293   1299     1
   1293   1300     1
   1294   2638     1
   1294   1299     1
   1294   1300     1
   1298   2630     1
   1298   2631     1
   1299   2629     1
   1300   2629     1
   1301   2659     1
   1301   2660     1
   1302   2658     1
   1303   2658     1
   1305   1319     1
   1305   1320     1
   1305   1322     1
   1305   1323     1
   1305   1316     1
   1305   1317     1
   1306   1310     1
   1306   1311     1
   1306   1313     1
   1306   1314     1
   1306   1331     1
   1306   1332     1
   1307   1309     1
   1307   1312     1
   1307   1330     1
   1307   1319     1
   1307   1320     1
   1308   1309     1
   1308   1312     1
   1308   1330     1
   1308   1319     1
   1308   1320     1
   1309   1313     1
   1309   1314     1
   1309   1328     1
   1309   1329     1
   1310   1312     1
   1310   1327     1
   1310   1322     1
   1310   1323     1
   1311   1312     1
   1311   1327     1
   1311   1322     1
   1311   1323     1
   1312   1325     1
   1312   1326     1
   1313   1324     1
   1313   1316     1
   1313   1317     1
   1314   1324     1
   1314   1316     1
   1314   1317     1
   1316   1333     1
   1316   1325     1
   1316   1326     1
   1317   1333     1
   1317   1325     1
   1317   1326     1
   1319   2725     1
   1319   1331     1
   1319   1332     1
   1320   2725     1
   1320   1331     1
   1320   1332     1
   1322   2696     1
   1322   1328     1
   1322   1329     1
   1323   2696     1
   1323   1328     1
   1323   1329     1
   1327   2688     1
   1327   2689     1
   1328   2687     1
   1329   2687     1
   1330   2717     1
   1330   2718     1
   1331   2716     1
   1332   2716     1
   1334   1348     1
   1334   1349     1
   1334   1351     1
   1334   1352     1
   1334   1345     1
   1334   1346     1
   1335   1339     1
   1335   1340     1
   1335   1342     1
   1335   1343     1
   1335   1360     1
   1335   1361     1
   1336   1338     1
   1336   1341     1
   1336   1359     1
   1336   1348     1
   1336   1349     1
   1337   1338     1
   1337   1341     1
   1337   1359     1
   1337   1348     1
   1337   1349     1
   1338   1342     1
   1338   1343     1
   1338   1357     1
   1338   1358     1
   1339   1341     1
   1339   1356     1
   1339   1351     1
   1339   1352     1
   1340   1341     1
   1340   1356     1
   1340   1351     1
   1340   1352     1
   1341   1354     1
   1341   1355     1
   1342   1353     1
   1342   1345     1
   1342   1346     1
   1343   1353     1
   1343   1345     1
   1343   1346     1
   1345   1362     1
   1345   1354     1
   1345   1355     1
   1346   1362     1
   1346   1354     1
   1346   1355     1
   1348   2787     1
   1348   1360     1
   1348   1361     1
   1349   2787     1
   1349   1360     1
   1349   1361     1
   1351   2756     1
   1351   1357     1
   1351   1358     1
   1352   2756     1
   1352   1357     1
   1352   1358     1
   1356   2727     1
   1356   2728     1
   1357   2726     1
   1358   2726     1
   1359   2758     1
   1359   2759     1
   1360   2757     1
   1361   2757     1
   1363   1377     1
   1363   1378     1
   1363   1380     1
   1363   1381     1
   1363   1374     1
   1363   1375     1
   1364   1368     1
   1364   1369     1
   1364   1371     1
   1364   1372     1
   1364   1389     1
   1364   1390     1
   1365   1367     1
   1365   1370     1
   1365   1388     1
   1365   1377     1
   1365   1378     1
   1366   1367     1
   1366   1370     1
   1366   1388     1
   1366   1377     1
   1366   1378     1
   1367   1371     1
   1367   1372     1
   1367   1386     1
   1367   1387     1
   1368   1370     1
   1368   1385     1
   1368   1380     1
   1368   1381     1
   1369   1370     1
   1369   1385     1
   1369   1380     1
   1369   1381     1
   1370   1383     1
   1370   1384     1
   1371   1382     1
   1371   1374     1
   1371   1375     1
   1372   1382     1
   1372   1374     1
   1372   1375     1
   1374   1391     1
   1374   1383     1
   1374   1384     1
   1375   1391     1
   1375   1383     1
   1375   1384     1
   1377   2849     1
   1377   1389     1
   1377   1390     1
   1378   2849     1
   1378   1389     1
   1378   1390     1
   1380   2818     1
   1380   1386     1
   1380   1387     1
   1381   2818     1
   1381   1386     1
   1381   1387     1
   1385   2789     1
   1385   2790     1
   1386   2788     1
   1387   2788     1
   1388   2820     1
   1388   2821     1
   1389   2819     1
   1390   2819     1
   1392   1406     1
   1392   1407     1
   1392   1409     1
   1392   1410     1
   1392   1403     1
   1392   1404     1
   1393   1397     1
   1393   1398     1
   1393   1400     1
   1393   1401     1
   1393   1418     1
   1393   1419     1
   1394   1396     1
   1394   1399     1
   1394   1417     1
   1394   1406     1
   1394   1407     1
   1395   1396     1
   1395   1399     1
   1395   1417     1
   1395   1406     1
   1395   1407     1
   1396   1400     1
   1396   1401     1
   1396   1415     1
   1396   1416     1
   1397   1399     1
   1397   1414     1
   1397   1409     1
   1397   1410     1
   1398   1399     1
   1398   1414     1
   1398   1409     1
   1398   1410     1
   1399   1412     1
   1399   1413     1
   1400   1411     1
   1400   1403     1
   1400   1404     1
   1401   1411     1
   1401   1403     1
   1401   1404     1
   1403   1420     1
   1403   1412     1
   1403   1413     1
   1404   1420     1
   1404   1412     1
   1404   1413     1
   1406   2911     1
   1406   1418     1
   1406   1419     1
   1407   2911     1
   1407   1418     1
   1407   1419     1
   1409   2880     1
   1409   1415     1
   1409   1416     1
   1410   2880     1
   1410   1415     1
   1410   1416     1
   1414   2851     1
   1414   2852     1
   1415   2850     1
   1416   2850     1
   1417   2882     1
   1417   2883     1
   1418   2881     1
   1419   2881     1
   1421   1435     1
   1421   1436     1
   1421   1438     1
   1421   1439     1
   1421   1432     1
   1421   1433     1
   1422   1426     1
   1422   1427     1
   1422   1429     1
   1422   1430     1
   1422   1447     1
   1422   1448     1
   1423   1425     1
   1423   1428     1
   1423   1446     1
   1423   1435     1
   1423   1436     1
   1424   1425     1
   1424   1428     1
   1424   1446     1
   1424   1435     1
   1424   1436     1
   1425   1429     1
   1425   1430     1
   1425   1444     1
   1425   1445     1
   1426   1428     1
   1426   1443     1
   1426   1438     1
   1426   1439     1
   1427   1428     1
   1427   1443     1
   1427   1438     1
   1427   1439     1
   1428   1441     1
   1428   1442     1
   1429   1440     1
   1429   1432     1
   1429   1433     1
   1430   1440     1
   1430   1432     1
   1430   1433     1
   1432   1449     1
   1432   1441     1
   1432   1442     1
   1433   1449     1
   1433   1441     1
   1433   1442     1
   1435   2973     1
   1435   1447     1
   1435   1448     1
   1436   2973     1
   1436   1447     1
   1436   1448     1
   1438   2942     1
   1438   1444     1
   1438   1445     1
   1439   2942     1
   1439   1444     1
   1439   1445     1
   1443   2913     1
   1443   2914     1
   1444   2912     1
   1445   2912     1
   1446   2944     1
   1446   2945     1
   1447   2943     1
   1448   2943     1
   1450   1464     1
   1450   1465     1
   1450   1467     1
   1450   1468     1
   1450   1461     1
   1450   1462     1
   1451   1455     1
   1451   1456     1
   1451   1458     1
   1451   1459     1
   1451   1476     1
   1451   1477     1
   1452   1454     1
   1452   1457     1
   1452   1475     1
   1452   1464     1
   1452   1465     1
   1453   1454     1
   1453   1457     1
   1453   1475     1
   1453   1464     1
   1453   1465     1
   1454   1458     1
   1454   1459     1
   1454   1473     1
   1454   1474     1
   1455   1457     1
   1455   1472     1
   1455   1467     1
   1455   1468     1
   1456   1457     1
   1456   1472     1
   1456   1467     1
   1456   1468     1
   1457   1470     1
   1457   1471     1
   1458   1469     1
   1458   1461     1
   1458   1462     1
   1459   1469     1
   1459   1461     1
   1459   1462     1
   1461   1478     1
   1461   1470     1
   1461   1471     1
   1462   1478     1
   1462   1470     1
   1462   1471     1
   1464   3035     1
   1464   1476     1
   1464   1477     1
   1465   3035     1
   1465   1476     1
   1465   1477     1
   1467   3004     1
   1467   1473     1
   1467   1474     1
   1468   3004     1
   1468   1473     1
   1468   1474     1
   1472   2975     1
   1472   2976     1
   1473   2974     1
   1474   2974     1
   1475   3006     1
   1475   3007     1
   1476   3005     1
   1477   3005     1
   1479   1493     1
   1479   1494     1
   1479   1496     1
   1479   1497     1
   1479   1490     1
   1479   1491     1
   1480   1484     1
   1480   1485     1
   1480   1487     1
   1480   1488     1
   1480   1505     1
   1480   1506     1
   1481   1483     1
   1481   1486     1
   1481   1504     1
   1481   1493     1
   1481   1494     1
   1482   1483     1
   1482   1486     1
   1482   1504     1
   1482   1493     1
   1482   1494     1
   1483   1487     1
   1483   1488     1
   1483   1502     1
   1483   1503     1
   1484   1486     1
   1484   1501     1
   1484   1496     1
   1484   1497     1
   1485   1486     1
   1485   1501     1
   1485   1496     1
   1485   1497     1
   1486   1499     1
   1486   1500     1
   1487   1498     1
   1487   1490     1
   1487   1491     1
   1488   1498     1
   1488   1490     1
   1488   1491     1
   1490   1507     1
   1490   1499     1
   1490   1500     1
   1491   1507     1
   1491   1499     1
   1491   1500     1
   1493   3097     1
   1493   1505     1
   1493   1506     1
   1494   3097     1
   1494   1505     1
   1494   1506     1
   1496   3066     1
   1496   1502     1
   1496   1503     1
   1497   3066     1
   1497   1502     1
   1497   1503     1
   1501   3037     1
   1501   3038     1
   1502   3036     1
   1503   3036     1
   1504   3068     1
   1504   3069     1
   1505   3067     1
   1506   3067     1
   1508   1522     1
   1508   1523     1
   1508   1525     1
   1508   1526     1
   1508   1519     1
   1508   1520     1
   1509   1513     1
   1509   1514     1
   1509   1516     1
   1509   1517     1
   1509   1534     1
   1509   1535     1
   1510   1512     1
   1510   1515     1
   1510   1533     1
   1510   1522     1
   1510   1523     1
   1511   1512     1
   1511   1515     1
   1511   1533     1
   1511   1522     1
   1511   1523     1
   1512   1516     1
   1512   1517     1
   1512   1531     1
   1512   1532     1
   1513   1515     1
   1513   1530     1
   1513   1525     1
   1513   1526     1
   1514   1515     1
   1514   1530     1
   1514   1525     1
   1514   1526     1
   1515   1528     1
   1515   1529     1
   1516   1527     1
   1516   1519     1
   1516   1520     1
   1517   1527     1
   1517   1519     1
   1517   1520     1
   1519   1536     1
   1519   1528     1
   1519   1529     1
   1520   1536     1
   1520   1528     1
   1520   1529     1
   1522   3159     1
   1522   1534     1
   1522   1535     1
   1523   3159     1
   1523   1534     1
   1523   1535     1
   1525   3128     1
   1525   1531     1
   1525   1532     1
   1526   3128     1
   1526   1531     1
   1526   1532     1
   1530   3099     1
   1530   3100     1
   1531   3098     1
   1532   3098     1
   1533   3130     1
   1533   3131     1
   1534   3129     1
   1535   3129     1
   1537   1551     1
   1537   1552     1
   1537   1554     1
   1537   1555     1
   1537   1548     1
   1537   1549     1
   1538   1542     1
   1538   1543     1
   1538   1545     1
   1538   1546     1
   1538   1563     1
   1538   1564     1
   1539   1541     1
   1539   1544     1
   1539   1562     1
   1539   1551     1
   1539   1552     1
   1540   1541     1
   1540   1544     1
   1540   1562     1
   1540   1551     1
   1540   1552     1
   1541   1545     1
   1541   1546     1
   1541   1560     1
   1541   1561     1
   1542   1544     1
   1542   1559     1
   1542   1554     1
   1542   1555     1
   1543   1544     1
   1543   1559     1
   1543   1554     1
   1543   1555     1
   1544   1557     1
   1544   1558     1
   1545   1556     1
   1545   1548     1
   1545   1549     1
   1546   1556     1
   1546   1548     1
   1546   1549     1
   1548   1565     1
   1548   1557     1
   1548   1558     1
   1549   1565     1
   1549   1557     1
   1549   1558     1
   1551   3221     1
   1551   1563     1
   1551   1564     1
   1552   3221     1
   1552   1563     1
   1552   1564     1
   1554   3190     1
   1554   1560     1
   1554   1561     1
   1555   3190     1
   1555   1560     1
   1555   1561     1
   1559   3161     1
   1559   3162     1
   1560   3160     1
   1561   3160     1
   1562   3192     1
   1562   3193     1
   1563   3191     1
   1564   3191     1
   1566   1580     1
   1566   1581     1
   1566   1583     1
   1566   1584     1
   1566   1577     1
   1566   1578     1
   1567   1571     1
   1567   1572     1
   1567   1574     1
   1567   1575     1
   1567   1592     1
   1567   1593     1
   1568   1570     1
   1568   1573     1
   1568   1591     1
   1568   1580     1
   1568   1581     1
   1569   1570     1
   1569   1573     1
   1569   1591     1
   1569   1580     1
   1569   1581     1
   1570   1574     1
   1570   1575     1
   1570   1589     1
   1570   1590     1
   1571   1573     1
   1571   1588     1
   1571   1583     1
   1571   1584     1
   1572   1573     1
   1572   1588     1
   1572   1583     1
   1572   1584     1
   1573   1586     1
   1573   1587     1
   1574   1585     1
   1574   1577     1
   1574   1578     1
   1575   1585     1
   1575   1577     1
   1575   1578     1
   1577   1594     1
   1577   1586     1
   1577   1587     1
   1578   1594     1
   1578   1586     1
   1578   1587     1
   1580   3283     1
   1580   1592     1
   1580   1593     1
   1581   3283     1
   1581   1592     1
   1581   1593     1
   1583   3252     1
   1583   1589     1
   1583   1590     1
   1584   3252     1
   1584   1589     1
   1584   1590     1
   1588   3223     1
   1588   3224     1
   1589   3222     1
   1590   3222     1
   1591   3254     1
   1591   3255     1
   1592   3253     1
   1593   3253     1
   1595   1609     1
   1595   1610     1
   1595   1612     1
   1595   1613     1
   1595   1606     1
   1595   1607     1
   1596   1600     1
   1596   1601     1
   1596   1603     1
   1596   1604     1
   1596   1621     1
   1596   1622     1
   1597   1599     1
   1597   1602     1
   1597   1620     1
   1597   1609     1
   1597   1610     1
   1598   1599     1
   1598   1602     1
   1598   1620     1
   1598   1609     1
   1598   1610     1
   1599   1603     1
   1599   1604     1
   1599   1618     1
   1599   1619     1
   1600   1602     1
   1600   1617     1
   1600   1612     1
   1600   1613     1
   1601   1602     1
   1601   1617     1
   1601   1612     1
   1601   1613     1
   1602   1615     1
   1602   1616     1
   1603   1614     1
   1603   1606     1
   1603   1607     1
   1604   1614     1
   1604   1606     1
   1604   1607     1
   1606   1623     1
   1606   1615     1
   1606   1616     1
   1607   1623     1
   1607   1615     1
   1607   1616     1
   1609   3345     1
   1609   1621     1
   1609   1622     1
   1610   3345     1
   1610   1621     1
   1610   1622     1
   1612   3314     1
   1612   1618     1
   1612   1619     1
   1613   3314     1
   1613   1618     1
   1613   1619     1
   1617   3285     1
   1617   3286     1
   1618   3284     1
   1619   3284     1
   1620   3316     1
   1620   3317     1
   1621   3315     1
   1622   3315     1
   1624   1638     1
   1624   1639     1
   1624   1641     1
   1624   1642     1
   1624   1635     1
   1624   1636     1
   1625   1629     1
   1625   1630     1
   1625   1632     1
   1625   1633     1
   1625   1650     1
   1625   1651     1
   1626   1628     1
   1626   1631     1
   1626   1649     1
   1626   1638     1
   1626   1639     1
   1627   1628     1
   1627   1631     1
   1627   1649     1
   1627   1638     1
   1627   1639     1
   1628   1632     1
   1628   1633     1
   1628   1647     1
   1628   1648     1
   1629   1631     1
   1629   1646     1
   1629   1641     1
   1629   1642     1
   1630   1631     1
   1630   1646     1
   1630   1641     1
   1630   1642     1
   1631   1644     1
   1631   1645     1
   1632   1643     1
   1632   1635     1
   1632   1636     1
   1633   1643     1
   1633   1635     1
   1633   1636     1
   1635   1652     1
   1635   1644     1
   1635   1645     1
   1636   1652     1
   1636   1644     1
   1636   1645     1
   1638   3407     1
   1638   1650     1
   1638   1651     1
   1639   3407     1
   1639   1650     1
   1639   1651     1
   1641   3376     1
   1641   1647     1
   1641   1648     1
   1642   3376     1
   1642   1647     1
   1642   1648     1
   1646   3347     1
   1646   3348     1
   1647   3346     1
   1648   3346     1
   1649   3378     1
   1649   3379     1
   1650   3377     1
   1651   3377     1
   1653   1667     1
   1653   1668     1
   1653   1670     1
   1653   1671     1
   1653   1664     1
   1653   1665     1
   1654   1658     1
   1654   1659     1
   1654   1661     1
   1654   1662     1
   1654   1679     1
   1654   1680     1
   1655   1657     1
   1655   1660     1
   1655   1678     1
   1655   1667     1
   1655   1668     1
   1656   1657     1
   1656   1660     1
   1656   1678     1
   1656   1667     1
   1656   1668     1
   1657   1661     1
   1657   1662     1
   1657   1676     1
   1657   1677     1
   1658   1660     1
   1658   1675     1
   1658   1670     1
   1658   1671     1
   1659   1660     1
   1659   1675     1
   1659   1670     1
   1659   1671     1
   1660   1673     1
   1660   1674     1
   1661   1672     1
   1661   1664     1
   1661   1665     1
   1662   1672     1
   1662   1664     1
   1662   1665     1
   1664   1681     1
   1664   1673     1
   1664   1674     1
   1665   1681     1
   1665   1673     1
   1665   1674     1
   1667   3469     1
   1667   1679     1
   1667   1680     1
   1668   3469     1
   1668   1679     1
   1668   1680     1
   1670   3438     1
   1670   1676     1
   1670   1677     1
   1671   3438     1
   1671   1676     1
   1671   1677     1
   1675   3409     1
   1675   3410     1
   1676   3408     1
   1677   3408     1
   1678   3440     1
   1678   3441     1
   1679   3439     1
   1680   3439     1
   1682   1696     1
   1682   1697     1
   1682   1699     1
   1682   1700     1
   1682   1693     1
   1682   1694     1
   1683   1687     1
   1683   1688     1
   1683   1690     1
   1683   1691     1
   1683   1708     1
   1683   1709     1
   1684   1686     1
   1684   1689     1
   1684   1707     1
   1684   1696     1
   1684   1697     1
   1685   1686     1
   1685   1689     1
   1685   1707     1
   1685   1696     1
   1685   1697     1
   1686   1690     1
   1686   1691     1
   1686   1705     1
   1686   1706     1
   1687   1689     1
   1687   1704     1
   1687   1699     1
   1687   1700     1
   1688   1689     1
   1688   1704     1
   1688   1699     1
   1688   1700     1
   1689   1702     1
   1689   1703     1
   1690   1701     1
   1690   1693     1
   1690   1694     1
   1691   1701     1
   1691   1693     1
   1691   1694     1
   1693   1710     1
   1693   1702     1
   1693   1703     1
   1694   1710     1
   1694   1702     1
   1694   1703     1
   1696   3531     1
   1696   1708     1
   1696   1709     1
   1697   3531     1
   1697   1708     1
   1697   1709     1
   1699   3500     1
   1699   1705     1
   1699   1706     1
   1700   3500     1
   1700   1705     1
   1700   1706     1
   1704   3471     1
   1704   3472     1
   1705   3470     1
   1706   3470     1
   1707   3502     1
   1707   3503     1
   1708   3501     1
   1709   3501     1
   1711   1725     1
   1711   1726     1
   1711   1728     1
   1711   1729     1
   1711   1722     1
   1711   1723     1
   1712   1716     1
   1712   1717     1
   1712   1719     1
   1712   1720     1
   1712   1737     1
   1712   1738     1
   1713   1715     1
   1713   1718     1
   1713   1736     1
   1713   1725     1
   1713   1726     1
   1714   1715     1
   1714   1718     1
   1714   1736     1
   1714   1725     1
   1714   1726     1
   1715   1719     1
   1715   1720     1
   1715   1734     1
   1715   1735     1
   1716   1718     1
   1716   1733     1
   1716   1728     1
   1716   1729     1
   1717   1718     1
   1717   1733     1
   1717   1728     1
   1717   1729     1
   1718   1731     1
   1718   1732     1
   1719   1730     1
   1719   1722     1
   1719   1723     1
   1720   1730     1
   1720   1722     1
   1720   1723     1
   1722   1739     1
   1722   1731     1
   1722   1732     1
   1723   1739     1
   1723   1731     1
   1723   1732     1
   1725   3593     1
   1725   1737     1
   1725   1738     1
   1726   3593     1
   1726   1737     1
   1726   1738     1
   1728   3562     1
   1728   1734     1
   1728   1735     1
   1729   3562     1
   1729   1734     1
   1729   1735     1
   1733   3533     1
   1733   3534     1
   1734   3532     1
   1735   3532     1
   1736   3564     1
   1736   3565     1
   1737   3563     1
   1738   3563     1
   1740   1754     1
   1740   1755     1
   1740   1757     1
   1740   1758     1
   1740   1751     1
   1740   1752     1
   1741   1745     1
   1741   1746     1
   1741   1748     1
   1741   1749     1
   1741   1766     1
   1741   1767     1
   1742   1744     1
   1742   1747     1
   1742   1765     1
   1742   1754     1
   1742   1755     1
   1743   1744     1
   1743   1747     1
   1743   1765     1
   1743   1754     1
   1743   1755     1
   1744   1748     1
   1744   1749     1
   1744   1763     1
   1744   1764     1
   1745   1747     1
   1745   1762     1
   1745   1757     1
   1745   1758     1
   1746   1747     1
   1746   1762     1
   1746   1757     1
   1746   1758     1
   1747   1760     1
   1747   1761     1
   1748   1759     1
   1748   1751     1
   1748   1752     1
   1749   1759     1
   1749   1751     1
   1749   1752     1
   1751   1768     1
   1751   1760     1
   1751   1761     1
   1752   1768     1
   1752   1760     1
   1752   1761     1
   1754   3655     1
   1754   1766     1
   1754   1767     1
   1755   3655     1
   1755   1766     1
   1755   1767     1
   1757   3624     1
   1757   1763     1
   1757   1764     1
   1758   3624     1
   1758   1763     1
   1758   1764     1
   1762   3595     1
   1762   3596     1
   1763   3594     1
   1764   3594     1
   1765   3626     1
   1765   3627     1
   1766   3625     1
   1767   3625     1
   1769   1783     1
   1769   1784     1
   1769   1786     1
   1769   1787     1
   1769   1780     1
   1769   1781     1
   1770   1774     1
   1770   1775     1
   1770   1777     1
   1770   1778     1
   1770   1795     1
   1770   1796     1
   1771   1773     1
   1771   1776     1
   1771   1794     1
   1771   1783     1
   1771   1784     1
   1772   1773     1
   1772   1776     1
   1772   1794     1
   1772   1783     1
   1772   1784     1
   1773   1777     1
   1773   1778     1
   1773   1792     1
   1773   1793     1
   1774   1776     1
   1774   1791     1
   1774   1786     1
   1774   1787     1
   1775   1776     1
   1775   1791     1
   1775   1786     1
   1775   1787     1
   1776   1789     1
   1776   1790     1
   1777   1788     1
   1777   1780     1
   1777   1781     1
   1778   1788     1
   1778   1780     1
   1778   1781     1
   1780   1797     1
   1780   1789     1
   1780   1790     1
   1781   1797     1
   1781   1789     1
   1781   1790     1
   1783   3717     1
   1783   1795     1
   1783   1796     1
   1784   3717     1
   1784   1795     1
   1784   1796     1
   1786   3686     1
   1786   1792     1
   1786   1793     1
   1787   3686     1
   1787   1792     1
   1787   1793     1
   1791   3657     1
   1791   3658     1
   1792   3656     1
   1793   3656     1
   1794   3688     1
   1794   3689     1
   1795   3687     1
   1796   3687     1
   1798   1812     1
   1798   1813     1
   1798   1815     1
   1798   1816     1
   1798   1809     1
   1798   1810     1
   1799   1803     1
   1799   1804     1
   1799   1806     1
   1799   1807     1
   1799   1824     1
   1799   1825     1
   1800   1802     1
   1800   1805     1
   1800   1823     1
   1800   1812     1
   1800   1813     1
   1801   1802     1
   1801   1805     1
   1801   1823     1
   1801   1812     1
   1801   1813     1
   1802   1806     1
   1802   1807     1
   1802   1821     1
   1802   1822     1
   1803   1805     1
   1803   1820     1
   1803   1815     1
   1803   1816     1
   1804   1805     1
   1804   1820     1
   1804   1815     1
   1804   1816     1
   1805   1818     1
   1805   1819     1
   1806   1817     1
   1806   1809     1
   1806   1810     1
   1807   1817     1
   1807   1809     1
   1807   1810     1
   1809   1826     1
   1809   1818     1
   1809   1819     1
   1810   1826     1
   1810   1818     1
   1810   1819     1
   1812   3779     1
   1812   1824     1
   1812   1825     1
   1813   3779     1
   1813   1824     1
   1813   1825     1
   1815   3748     1
   1815   1821     1
   1815   1822     1
   1816   3748     1
   1816   1821     1
   1816   1822     1
   1820   3719     1
   1820   3720     1
   1821   3718     1
   1822   3718     1
   1823   3750     1
   1823   3751     1
   1824   3749     1
   1825   3749     1
   1827   1841     1
   1827   1842     1
   1827   1844     1
   1827   1845     1
   1827   1838     1
   1827   1839     1
   1828   1832     1
   1828   1833     1
   1828   1835     1
   1828   1836     1
   1828   1853     1
   1828   1854     1
   1829   1831     1
   1829   1834     1
   1829   1852     1
   1829   1841     1
   1829   1842     1
   1830   1831     1
   1830   1834     1
   1830   1852     1
   1830   1841     1
   1830   1842     1
   1831   1835     1
   1831   1836     1
   1831   1850     1
   1831   1851     1
   1832   1834     1
   1832   1849     1
   1832   1844     1
   1832   1845     1
   1833   1834     1
   1833   1849     1
   1833   1844     1
   1833   1845     1
   1834   1847     1
   1834   1848     1
   1835   1846     1
   1835   1838     1
   1835   1839     1
   1836   1846     1
   1836   1838     1
   1836   1839     1
   1838   1855     1
   1838   1847     1
   1838   1848     1
   1839   1855     1
   1839   1847     1
   1839   1848     1
   1841   3841     1
   1841   1853     1
   1841   1854     1
   1842   3841     1
   1842   1853     1
   1842   1854     1
   1844   3810     1
   1844   1850     1
   1844   1851     1
   1845   3810     1
   1845   1850     1
   1845   1851     1
   1849   3781     1
   1849   3782     1
   1850   3780     1
   1851   3780     1
   1852   3812     1
   1852   3813     1
   1853   3811     1
   1854   3811     1
   1856   1870     1
   1856   1871     1
   1856   1873     1
   1856   1874     1
   1856   1867     1
   1856   1868     1
   1857   1861     1
   1857   1862     1
   1857   1864     1
   1857   1865     1
   1857   1882     1
   1857   1883     1
   1858   1860     1
   1858   1863     1
   1858   1881     1
   1858   1870     1
   1858   1871     1
   1859   1860     1
   1859   1863     1
   1859   1881     1
   1859   1870     1
   1859   1871     1
   1860   1864     1
   1860   1865     1
   1860   1879     1
   1860   1880     1
   1861   1863     1
   1861   1878     1
   1861   1873     1
   1861   1874     1
   1862   1863     1
   1862   1878     1
   1862   1873     1
   1862   1874     1
   1863   1876     1
   1863   1877     1
   1864   1875     1
   1864   1867     1
   1864   1868     1
   1865   1875     1
   1865   1867     1
   1865   1868     1
   1867   1884     1
   1867   1876     1
   1867   1877     1
   1868   1884     1
   1868   1876     1
   1868   1877     1
   1870   3903     1
   1870   1882     1
   1870   1883     1
   1871   3903     1
   1871   1882     1
   1871   1883     1
   1873   3872     1
   1873   1879     1
   1873   1880     1
   1874   3872     1
   1874   1879     1
   1874   1880     1
   1878   3843     1
   1878   3844     1
   1879   3842     1
   1880   3842     1
   1881   3874     1
   1881   3875     1
   1882   3873     1
   1883   3873     1
   1885   1899     1
   1885   1900     1
   1885   1902     1
   1885   1903     1
   1885   1896     1
   1885   1897     1
   1886   1890     1
   1886   1891     1
   1886   1893     1
   1886   1894     1
   1886   1911     1
   1886   1912     1
   1887   1889     1
   1887   1892     1
   1887   1910     1
   1887   1899     1
   1887   1900     1
   1888   1889     1
   1888   1892     1
   1888   1910     1
   1888   1899     1
   1888   1900     1
   1889   1893     1
   1889   1894     1
   1889   1908     1
   1889   1909     1
   1890   1892     1
   1890   1907     1
   1890   1902     1
   1890   1903     1
   1891   1892     1
   1891   1907     1
   1891   1902     1
   1891   1903     1
   1892   1905     1
   1892   1906     1
   1893   1904     1
   1893   1896     1
   1893   1897     1
   1894   1904     1
   1894   1896     1
   1894   1897     1
   1896   1913     1
   1896   1905     1
   1896   1906     1
   1897   1913     1
   1897   1905     1
   1897   1906     1
   1899   3965     1
   1899   1911     1
   1899   1912     1
   1900   3965     1
   1900   1911     1
   1900   1912     1
   1902   3934     1
   1902   1908     1
   1902   1909     1
   1903   3934     1
   1903   1908     1
   1903   1909     1
   1907   3905     1
   1907   3906     1
   1908   3904     1
   1909   3904     1
   1910   3936     1
   1910   3937     1
   1911   3935     1
   1912   3935     1
   1914   1928     1
   1914   1929     1
   1914   1931     1
   1914   1932     1
   1914   1925     1
   1914   1926     1
   1915   1919     1
   1915   1920     1
   1915   1922     1
   1915   1923     1
   1915   1940     1
   1915   1941     1
   1916   1918     1
   1916   1921     1
   1916   1939     1
   1916   1928     1
   1916   1929     1
   1917   1918     1
   1917   1921     1
   1917   1939     1
   1917   1928     1
   1917   1929     1
   1918   1922     1
   1918   1923     1
   1918   1937     1
   1918   1938     1
   1919   1921     1
   1919   1936     1
   1919   1931     1
   1919   1932     1
   1920   1921     1
   1920   1936     1
   1920   1931     1
   1920   1932     1
   1921   1934     1
   1921   1935     1
   1922   1933     1
   1922   1925     1
   1922   1926     1
   1923   1933     1
   1923   1925     1
   1923   1926     1
   1925   1942     1
   1925   1934     1
   1925   1935     1
   1926   1942     1
   1926   1934     1
   1926   1935     1
   1928   4027     1
   1928   1940     1
   1928   1941     1
   1929   4027     1
   1929   1940     1
   1929   1941     1
   1931   3996     1
   1931   1937     1
   1931   1938     1
   1932   3996     1
   1932   1937     1
   1932   1938     1
   1936   3967     1
   1936   3968     1
   1937   3966     1
   1938   3966     1
   1939   3998     1
   1939   3999     1
   1940   3997     1
   1941   3997     1
   1943   1957     1
   1943   1958     1
   1943   1960     1
   1943   1961     1
   1943   1954     1
   1943   1955     1
   1944   1948     1
   1944   1949     1
   1944   1951     1
   1944   1952     1
   1944   1969     1
   1944   1970     1
   1945   1947     1
   1945   1950     1
   1945   1968     1
   1945   1957     1
   1945   1958     1
   1946   1947     1
   1946   1950     1
   1946   1968     1
   1946   1957     1
   1946   1958     1
   1947   1951     1
   1947   1952     1
   1947   1966     1
   1947   1967     1
   1948   1950     1
   1948   1965     1
   1948   1960     1
   1948   1961     1
   1949   1950     1
   1949   1965     1
   1949   1960     1
   1949   1961     1
   1950   1963     1
   1950   1964     1
   1951   1962     1
   1951   1954     1
   1951   1955     1
   1952   1962     1
   1952   1954     1
   1952   1955     1
   1954   1971     1
   1954   1963     1
   1954   1964     1
   1955   1971     1
   1955   1963     1
   1955   1964     1
   1957   4089     1
   1957   1969     1
   1957   1970     1
   1958   4089     1
   1958   1969     1
   1958   1970     1
   1960   4058     1
   1960   1966     1
   1960   1967     1
   1961   4058     1
   1961   1966     1
   1961   1967     1
   1965   4029     1
   1965   4030     1
   1966   4028     1
   1967   4028     1
   1968   4060     1
   1968   4061     1
   1969   4059     1
   1970   4059     1
   1972   1986     1
   1972   1987     1
   1972   1989     1
   1972   1990     1
   1972   1983     1
   1972   1984     1
   1973   1977     1
   1973   1978     1
   1973   1980     1
   1973   1981     1
   1973   1998     1
   1973   1999     1
   1974   1976     1
   1974   1979     1
   1974   1997     1
   1974   1986     1
   1974   1987     1
   1975   1976     1
   1975   1979     1
   1975   1997     1
   1975   1986     1
   1975   1987     1
   1976   1980     1
   1976   1981     1
   1976   1995     1
   1976   1996     1
   1977   1979     1
   1977   1994     1
   1977   1989     1
   1977   1990     1
   1978   1979     1
   1978   1994     1
   1978   1989     1
   1978   1990     1
   1979   1992     1
   1979   1993     1
   1980   1991     1
   1980   1983     1
   1980   1984     1
   1981   1991     1
   1981   1983     1
   1981   1984     1
   1983   2000     1
   1983   1992     1
   1983   1993     1
   1984   2000     1
   1984   1992     1
   1984   1993     1
   1986   4151     1
   1986   1998     1
   1986   1999     1
   1987   4151     1
   1987   1998     1
   1987   1999     1
   1989   4120     1
   1989   1995     1
   1989   1996     1
   1990   4120     1
   1990   1995     1
   1990   1996     1
   1994   4091     1
   1994   4092     1
   1995   4090     1
   1996   4090     1
   1997   4122     1
   1997   4123     1
   1998   4121     1
   1999   4121     1
   2001   2015     1
   2001   2016     1
   2001   2018     1
   2001   2019     1
   2001   2012     1
   2001   2013     1
   2002   2006     1
   2002   2007     1
   2002   2009     1
   2002   2010     1
   2002   2027     1
   2002   2028     1
   2003   2005     1
   2003   2008     1
   2003   2026     1
   2003   2015     1
   2003   2016     1
   2004   2005     1
   2004   2008     1
   2004   2026     1
   2004   2015     1
   2004   2016     1
   2005   2009     1
   2005   2010     1
   2005   2024     1
   2005   2025     1
   2006   2008     1
   2006   2023     1
   2006   2018     1
   2006   2019     1
   2007   2008     1
   2007   2023     1
   2007   2018     1
   2007   2019     1
   2008   2021     1
   2008   2022     1
   2009   2020     1
   2009   2012     1
   2009   2013     1
   2010   2020     1
   2010   2012     1
   2010   2013     1
   2012   2029     1
   2012   2021     1
   2012   2022     1
   2013   2029     1
   2013   2021     1
   2013   2022     1
   2015   4213     1
   2015   2027     1
   2015   2028     1
   2016   4213     1
   2016   2027     1
   2016   2028     1
   2018   4182     1
   2018   2024     1
   2018   2025     1
   2019   4182     1
   2019   2024     1
   2019   2025     1
   2023   4153     1
   2023   4154     1
   2024   4152     1
   2025   4152     1
   2026   4184     1
   2026   4185     1
   2027   4183     1
   2028   4183     1
   2030   2044     1
   2030   2045     1
   2030   2047     1
   2030   2048     1
   2030   2041     1
   2030   2042     1
   2031   2035     1
   2031   2036     1
   2031   2038     1
   2031   2039     1
   2031   2056     1
   2031   2057     1
   2032   2034     1
   2032   2037     1
   2032   2055     1
   2032   2044     1
   2032   2045     1
   2033   2034     1
   2033   2037     1
   2033   2055     1
   2033   2044     1
   2033   2045     1
   2034   2038     1
   2034   2039     1
   2034   2053     1
   2034   2054     1
   2035   2037     1
   2035   2052     1
   2035   2047     1
   2035   2048     1
   2036   2037     1
   2036   2052     1
   2036   2047     1
   2036   2048     1
   2037   2050     1
   2037   2051     1
   2038   2049     1
   2038   2041     1
   2038   2042     1
   2039   2049     1
   2039   2041     1
   2039   2042     1
   2041   2058     1
   2041   2050     1
   2041   2051     1
   2042   2058     1
   2042   2050     1
   2042   2051     1
   2044   4275     1
   2044   2056     1
   2044   2057     1
   2045   4275     1
   2045   2056     1
   2045   2057     1
   2047   4244     1
   2047   2053     1
   2047   2054     1
   2048   4244     1
   2048   2053     1
   2048   2054     1
   2052   4215     1
   2052   4216     1
   2053   4214     1
   2054   4214     1
   2055   4246     1
   2055   4247     1
   2056   4245     1
   2057   4245     1
   2059   2073     1
   2059   2074     1
   2059   2076     1
   2059   2077     1
   2059   2070     1
   2059   2071     1
   2060   2064     1
   2060   2065     1
   2060   2067     1
   2060   2068     1
   2060   2085     1
   2060   2086     1
   2061   2063     1
   2061   2066     1
   2061   2084     1
   2061   2073     1
   2061   2074     1
   2062   2063     1
   2062   2066     1
   2062   2084     1
   2062   2073     1
   2062   2074     1
   2063   2067     1
   2063   2068     1
   2063   2082     1
   2063   2083     1
   2064   2066     1
   2064   2081     1
   2064   2076     1
   2064   2077     1
   2065   2066     1
   2065   2081     1
   2065   2076     1
   2065   2077     1
   2066   2079     1
   2066   2080     1
   2067   2078     1
   2067   2070     1
   2067   2071     1
   2068   2078     1
   2068   2070     1
   2068   2071     1
   2070   2087     1
   2070   2079     1
   2070   2080     1
   2071   2087     1
   2071   2079     1
   2071   2080     1
   2073   4337     1
   2073   2085     1
   2073   2086     1
   2074   4337     1
   2074   2085     1
   2074   2086     1
   2076   4306     1
   2076   2082     1
   2076   2083     1
   2077   4306     1
   2077   2082     1
   2077   2083     1
   2081   4277     1
   2081   4278     1
   2082   4276     1
   2083   4276     1
   2084   4308     1
   2084   4309     1
   2085   4307     1
   2086   4307     1
   2088   2102     1
   2088   2103     1
   2088   2105     1
   2088   2106     1
   2088   2099     1
   2088   2100     1
   2089   2093     1
   2089   2094     1
   2089   2096     1
   2089   2097     1
   2089   2114     1
   2089   2115     1
   2090   2092     1
   2090   2095     1
   2090   2113     1
   2090   2102     1
   2090   2103     1
   2091   2092     1
   2091   2095     1
   2091   2113     1
   2091   2102     1
   2091   2103     1
   2092   2096     1
   2092   2097     1
   2092   2111     1
   2092   2112     1
   2093   2095     1
   2093   2110     1
   2093   2105     1
   2093   2106     1
   2094   2095     1
   2094   2110     1
   2094   2105     1
   2094   2106     1
   2095   2108     1
   2095   2109     1
   2096   2107     1
   2096   2099     1
   2096   2100     1
   2097   2107     1
   2097   2099     1
   2097   2100     1
   2099   2116     1
   2099   2108     1
   2099   2109     1
   2100   2116     1
   2100   2108     1
   2100   2109     1
   2102   4399     1
   2102   2114     1
   2102   2115     1
   2103   4399     1
   2103   2114     1
   2103   2115     1
   2105   4368     1
   2105   2111     1
   2105   2112     1
   2106   4368     1
   2106   2111     1
   2106   2112     1
   2110   4339     1
   2110   4340     1
   2111   4338     1
   2112   4338     1
   2113   4370     1
   2113   4371     1
   2114   4369     1
   2115   4369     1
   2117   2131     1
   2117   2132     1
   2117   2134     1
   2117   2135     1
   2117   2128     1
   2117   2129     1
   2118   2122     1
   2118   2123     1
   2118   2125     1
   2118   2126     1
   2118   2143     1
   2118   2144     1
   2119   2121     1
   2119   2124     1
   2119   2142     1
   2119   2131     1
   2119   2132     1
   2120   2121     1
   2120   2124     1
   2120   2142     1
   2120   2131     1
   2120   2132     1
   2121   2125     1
   2121   2126     1
   2121   2140     1
   2121   2141     1
   2122   2124     1
   2122   2139     1
   2122   2134     1
   2122   2135     1
   2123   2124     1
   2123   2139     1
   2123   2134     1
   2123   2135     1
   2124   2137     1
   2124   2138     1
   2125   2136     1
   2125   2128     1
   2125   2129     1
   2126   2136     1
   2126   2128     1
   2126   2129     1
   2128   2145     1
   2128   2137     1
   2128   2138     1
   2129   2145     1
   2129   2137     1
   2129   2138     1
   2131   4461     1
   2131   2143     1
   2131   2144     1
   2132   4461     1
   2132   2143     1
   2132   2144     1
   2134   4430     1
   2134   2140     1
   2134   2141     1
   2135   4430     1
   2135   2140     1
   2135   2141     1
   2139   4401     1
   2139   4402     1
   2140   4400     1
   2141   4400     1
   2142   4432     1
   2142   4433     1
   2143   4431     1
   2144   4431     1
   2146   2160     1
   2146   2161     1
   2146   2163     1
   2146   2164     1
   2146   2157     1
   2146   2158     1
   2147   2151     1
   2147   2152     1
   2147   2154     1
   2147   2155     1
   2147   2172     1
   2147   2173     1
   2148   2150     1
   2148   2153     1
   2148   2171     1
   2148   2160     1
   2148   2161     1
   2149   2150     1
   2149   2153     1
   2149   2171     1
   2149   2160     1
   2149   2161     1
   2150   2154     1
   2150   2155     1
   2150   2169     1
   2150   2170     1
   2151   2153     1
   2151   2168     1
   2151   2163     1
   2151   2164     1
   2152   2153     1
   2152   2168     1
   2152   2163     1
   2152   2164     1
   2153   2166     1
   2153   2167     1
   2154   2165     1
   2154   2157     1
   2154   2158     1
   2155   2165     1
   2155   2157     1
   2155   2158     1
   2157   2174     1
   2157   2166     1
   2157   2167     1
   2158   2174     1
   2158   2166     1
   2158   2167     1
   2160   4523     1
   2160   2172     1
   2160   2173     1
   2161   4523     1
   2161   2172     1
   2161   2173     1
   2163   4492     1
   2163   2169     1
   2163   2170     1
   2164   4492     1
   2164   2169     1
   2164   2170     1
   2168   4463     1
   2168   4464     1
   2169   4462     1
   2170   4462     1
   2171   4494     1
   2171   4495     1
   2172   4493     1
   2173   4493     1
   2175   2189     1
   2175   2190     1
   2175   2192     1
   2175   2193     1
   2175   2186     1
   2175   2187     1
   2176   2180     1
   2176   2181     1
   2176   2183     1
   2176   2184     1
   2176   2201     1
   2176   2202     1
   2177   2179     1
   2177   2182     1
   2177   2200     1
   2177   2189     1
   2177   2190     1
   2178   2179     1
   2178   2182     1
   2178   2200     1
   2178   2189     1
   2178   2190     1
   2179   2183     1
   2179   2184     1
   2179   2198     1
   2179   2199     1
   2180   2182     1
   2180   2197     1
   2180   2192     1
   2180   2193     1
   2181   2182     1
   2181   2197     1
   2181   2192     1
   2181   2193     1
   2182   2195     1
   2182   2196     1
   2183   2194     1
   2183   2186     1
   2183   2187     1
   2184   2194     1
   2184   2186     1
   2184   2187     1
   2186   2203     1
   2186   2195     1
   2186   2196     1
   2187   2203     1
   2187   2195     1
   2187   2196     1
   2189   4585     1
   2189   2201     1
   2189   2202     1
   2190   4585     1
   2190   2201     1
   2190   2202     1
   2192   4554     1
   2192   2198     1
   2192   2199     1
   2193   4554     1
   2193   2198     1
   2193   2199     1
   2197   4525     1
   2197   4526     1
   2198   4524     1
   2199   4524     1
   2200   4556     1
   2200   4557     1
   2201   4555     1
   2202   4555     1
   2204   2218     1
   2204   2219     1
   2204   2221     1
   2204   2222     1
   2204   2215     1
   2204   2216     1
   2205   2209     1
   2205   2210     1
   2205   2212     1
   2205   2213     1
   2205   2230     1
   2205   2231     1
   2206   2208     1
   2206   2211     1
   2206   2229     1
   2206   2218     1
   2206   2219     1
   2207   2208     1
   2207   2211     1
   2207   2229     1
   2207   2218     1
   2207   2219     1
   2208   2212     1
   2208   2213     1
   2208   2227     1
   2208   2228     1
   2209   2211     1
   2209   2226     1
   2209   2221     1
   2209   2222     1
   2210   2211     1
   2210   2226     1
   2210   2221     1
   2210   2222     1
   2211   2224     1
   2211   2225     1
   2212   2223     1
   2212   2215     1
   2212   2216     1
   2213   2223     1
   2213   2215     1
   2213   2216     1
   2215   2232     1
   2215   2224     1
   2215   2225     1
   2216   2232     1
   2216   2224     1
   2216   2225     1
   2218   4647     1
   2218   2230     1
   2218   2231     1
   2219   4647     1
   2219   2230     1
   2219   2231     1
   2221   4616     1
   2221   2227     1
   2221   2228     1
   2222   4616     1
   2222   2227     1
   2222   2228     1
   2226   4587     1
   2226   4588     1
   2227   4586     1
   2228   4586     1
   2229   4618     1
   2229   4619     1
   2230   4617     1
   2231   4617     1
   2233   2247     1
   2233   2248     1
   2233   2250     1
   2233   2251     1
   2233   2244     1
   2233   2245     1
   2234   2238     1
   2234   2239     1
   2234   2241     1
   2234   2242     1
   2234   2259     1
   2234   2260     1
   2235   2237     1
   2235   2240     1
   2235   2258     1
   2235   2247     1
   2235   2248     1
   2236   2237     1
   2236   2240     1
   2236   2258     1
   2236   2247     1
   2236   2248     1
   2237   2241     1
   2237   2242     1
   2237   2256     1
   2237   2257     1
   2238   2240     1
   2238   2255     1
   2238   2250     1
   2238   2251     1
   2239   2240     1
   2239   2255     1
   2239   2250     1
   2239   2251     1
   2240   2253     1
   2240   2254     1
   2241   2252     1
   2241   2244     1
   2241   2245     1
   2242   2252     1
   2242   2244     1
   2242   2245     1
   2244   2261     1
   2244   2253     1
   2244   2254     1
   2245   2261     1
   2245   2253     1
   2245   2254     1
   2247   4709     1
   2247   2259     1
   2247   2260     1
   2248   4709     1
   2248   2259     1
   2248   2260     1
   2250   4678     1
   2250   2256     1
   2250   2257     1
   2251   4678     1
   2251   2256     1
   2251   2257     1
   2255   4649     1
   2255   4650     1
   2256   4648     1
   2257   4648     1
   2258   4680     1
   2258   4681     1
   2259   4679     1
   2260   4679     1
   2262   2276     1
   2262   2277     1
   2262   2279     1
   2262   2280     1
   2262   2273     1
   2262   2274     1
   2263   2267     1
   2263   2268     1
   2263   2270     1
   2263   2271     1
   2263   2288     1
   2263   2289     1
   2264   2266     1
   2264   2269     1
   2264   2287     1
   2264   2276     1
   2264   2277     1
   2265   2266     1
   2265   2269     1
   2265   2287     1
   2265   2276     1
   2265   2277     1
   2266   2270     1
   2266   2271     1
   2266   2285     1
   2266   2286     1
   2267   2269     1
   2267   2284     1
   2267   2279     1
   2267   2280     1
   2268   2269     1
   2268   2284     1
   2268   2279     1
   2268   2280     1
   2269   2282     1
   2269   2283     1
   2270   2281     1
   2270   2273     1
   2270   2274     1
   2271   2281     1
   2271   2273     1
   2271   2274     1
   2273   2290     1
   2273   2282     1
   2273   2283     1
   2274   2290     1
   2274   2282     1
   2274   2283     1
   2276   4771     1
   2276   2288     1
   2276   2289     1
   2277   4771     1
   2277   2288     1
   2277   2289     1
   2279   4740     1
   2279   2285     1
   2279   2286     1
   2280   4740     1
   2280   2285     1
   2280   2286     1
   2284   4711     1
   2284   4712     1
   2285   4710     1
   2286   4710     1
   2287   4742     1
   2287   4743     1
   2288   4741     1
   2289   4741     1
   2291   2305     1
   2291   2306     1
   2291   2308     1
   2291   2309     1
   2291   2302     1
   2291   2303     1
   2292   2296     1
   2292   2297     1
   2292   2299     1
   2292   2300     1
   2292   2317     1
   2292   2318     1
   2293   2295     1
   2293   2298     1
   2293   2316     1
   2293   2305     1
   2293   2306     1
   2294   2295     1
   2294   2298     1
   2294   2316     1
   2294   2305     1
   2294   2306     1
   2295   2299     1
   2295   2300     1
   2295   2314     1
   2295   2315     1
   2296   2298     1
   2296   2313     1
   2296   2308     1
   2296   2309     1
   2297   2298     1
   2297   2313     1
   2297   2308     1
   2297   2309     1
   2298   2311     1
   2298   2312     1
   2299   2310     1
   2299   2302     1
   2299   2303     1
   2300   2310     1
   2300   2302     1
   2300   2303     1
   2302   2319     1
   2302   2311     1
   2302   2312     1
   2303   2319     1
   2303   2311     1
   2303   2312     1
   2305   4833     1
   2305   2317     1
   2305   2318     1
   2306   4833     1
   2306   2317     1
   2306   2318     1
   2308   4802     1
   2308   2314     1
   2308   2315     1
   2309   4802     1
   2309   2314     1
   2309   2315     1
   2313   4773     1
   2313   4774     1
   2314   4772     1
   2315   4772     1
   2316   4804     1
   2316   4805     1
   2317   4803     1
   2318   4803     1
   2320   2334     1
   2320   2335     1
   2320   2337     1
   2320   2338     1
   2320   2331     1
   2320   2332     1
   2321   2325     1
   2321   2326     1
   2321   2328     1
   2321   2329     1
   2321   2346     1
   2321   2347     1
   2322   2324     1
   2322   2327     1
   2322   2345     1
   2322   2334     1
   2322   2335     1
   2323   2324     1
   2323   2327     1
   2323   2345     1
   2323   2334     1
   2323   2335     1
   2324   2328     1
   2324   2329     1
   2324   2343     1
   2324   2344     1
   2325   2327     1
   2325   2342     1
   2325   2337     1
   2325   2338     1
   2326   2327     1
   2326   2342     1
   2326   2337     1
   2326   2338     1
   2327   2340     1
   2327   2341     1
   2328   2339     1
   2328   2331     1
   2328   2332     1
   2329   2339     1
   2329   2331     1
   2329   2332     1
   2331   2348     1
   2331   2340     1
   2331   2341     1
   2332   2348     1
   2332   2340     1
   2332   2341     1
   2334   4895     1
   2334   2346     1
   2334   2347     1
   2335   4895     1
   2335   2346     1
   2335   2347     1
   2337   4864     1
   2337   2343     1
   2337   2344     1
   2338   4864     1
   2338   2343     1
   2338   2344     1
   2342   4835     1
   2342   4836     1
   2343   4834     1
   2344   4834     1
   2345   4866     1
   2345   4867     1
   2346   4865     1
   2347   4865     1
   2349   2363     1
   2349   2364     1
   2349   2366     1
   2349   2367     1
   2349   2360     1
   2349   2361     1
   2350   2354     1
   2350   2355     1
   2350   2357     1
   2350   2358     1
   2350   2375     1
   2350   2376     1
   2351   2353     1
   2351   2356     1
   2351   2374     1
   2351   2363     1
   2351   2364     1
   2352   2353     1
   2352   2356     1
   2352   2374     1
   2352   2363     1
   2352   2364     1
   2353   2357     1
   2353   2358     1
   2353   2372     1
   2353   2373     1
   2354   2356     1
   2354   2371     1
   2354   2366     1
   2354   2367     1
   2355   2356     1
   2355   2371     1
   2355   2366     1
   2355   2367     1
   2356   2369     1
   2356   2370     1
   2357   2368     1
   2357   2360     1
   2357   2361     1
   2358   2368     1
   2358   2360     1
   2358   2361     1
   2360   2377     1
   2360   2369     1
   2360   2370     1
   2361   2377     1
   2361   2369     1
   2361   2370     1
   2363   4957     1
   2363   2375     1
   2363   2376     1
   2364   4957     1
   2364   2375     1
   2364   2376     1
   2366   4926     1
   2366   2372     1
   2366   2373     1
   2367   4926     1
   2367   2372     1
   2367   2373     1
   2371   4897     1
   2371   4898     1
   2372   4896     1
   2373   4896     1
   2374   4928     1
   2374   4929     1
   2375   4927     1
   2376   4927     1
   2378   2392     1
   2378   2393     1
   2378   2395     1
   2378   2396     1
   2378   2389     1
   2378   2390     1
   2379   2383     1
   2379   2384     1
   2379   2386     1
   2379   2387     1
   2379   2404     1
   2379   2405     1
   2380   2382     1
   2380   2385     1
   2380   2403     1
   2380   2392     1
   2380   2393     1
   2381   2382     1
   2381   2385     1
   2381   2403     1
   2381   2392     1
   2381   2393     1
   2382   2386     1
   2382   2387     1
   2382   2401     1
   2382   2402     1
   2383   2385     1
   2383   2400     1
   2383   2395     1
   2383   2396     1
   2384   2385     1
   2384   2400     1
   2384   2395     1
   2384   2396     1
   2385   2398     1
   2385   2399     1
   2386   2397     1
   2386   2389     1
   2386   2390     1
   2387   2397     1
   2387   2389     1
   2387   2390     1
   2389   2406     1
   2389   2398     1
   2389   2399     1
   2390   2406     1
   2390   2398     1
   2390   2399     1
   2392   5019     1
   2392   2404     1
   2392   2405     1
   2393   5019     1
   2393   2404     1
   2393   2405     1
   2395   4988     1
   2395   2401     1
   2395   2402     1
   2396   4988     1
   2396   2401     1
   2396   2402     1
   2400   4959     1
   2400   4960     1
   2401   4958     1
   2402   4958     1
   2403   4990     1
   2403   4991     1
   2404   4989     1
   2405   4989     1
   2407   2421     1
   2407   2422     1
   2407   2424     1
   2407   2425     1
   2407   2418     1
   2407   2419     1
   2408   2412     1
   2408   2413     1
   2408   2415     1
   2408   2416     1
   2408   2433     1
   2408   2434     1
   2409   2411     1
   2409   2414     1
   2409   2432     1
   2409   2421     1
   2409   2422     1
   2410   2411     1
   2410   2414     1
   2410   2432     1
   2410   2421     1
   2410   2422     1
   2411   2415     1
   2411   2416     1
   2411   2430     1
   2411   2431     1
   2412   2414     1
   2412   2429     1
   2412   2424     1
   2412   2425     1
   2413   2414     1
   2413   2429     1
   2413   2424     1
   2413   2425     1
   2414   2427     1
   2414   2428     1
   2415   2426     1
   2415   2418     1
   2415   2419     1
   2416   2426     1
   2416   2418     1
   2416   2419     1
   2418   2435     1
   2418   2427     1
   2418   2428     1
   2419   2435     1
   2419   2427     1
   2419   2428     1
   2421   5081     1
   2421   2433     1
   2421   2434     1
   2422   5081     1
   2422   2433     1
   2422   2434     1
   2424   5050     1
   2424   2430     1
   2424   2431     1
   2425   5050     1
   2425   2430     1
   2425   2431     1
   2429   5021     1
   2429   5022     1
   2430   5020     1
   2431   5020     1
   2432   5052     1
   2432   5053     1
   2433   5051     1
   2434   5051     1
   2436   2450     1
   2436   2451     1
   2436   2453     1
   2436   2454     1
   2436   2447     1
   2436   2448     1
   2437   2441     1
   2437   2442     1
   2437   2444     1
   2437   2445     1
   2437   2462     1
   2437   2463     1
   2438   2440     1
   2438   2443     1
   2438   2461     1
   2438   2450     1
   2438   2451     1
   2439   2440     1
   2439   2443     1
   2439   2461     1
   2439   2450     1
   2439   2451     1
   2440   2444     1
   2440   2445     1
   2440   2459     1
   2440   2460     1
   2441   2443     1
   2441   2458     1
   2441   2453     1
   2441   2454     1
   2442   2443     1
   2442   2458     1
   2442   2453     1
   2442   2454     1
   2443   2456     1
   2443   2457     1
   2444   2455     1
   2444   2447     1
   2444   2448     1
   2445   2455     1
   2445   2447     1
   2445   2448     1
   2447   2464     1
   2447   2456     1
   2447   2457     1
   2448   2464     1
   2448   2456     1
   2448   2457     1
   2450   5143     1
   2450   2462     1
   2450   2463     1
   2451   5143     1
   2451   2462     1
   2451   2463     1
   2453   5112     1
   2453   2459     1
   2453   2460     1
   2454   5112     1
   2454   2459     1
   2454   2460     1
   2458   5083     1
   2458   5084     1
   2459   5082     1
   2460   5082     1
   2461   5114     1
   2461   5115     1
   2462   5113     1
   2463   5113     1
   2465   2479     1
   2465   2480     1
   2465   2482     1
   2465   2483     1
   2465   2476     1
   2465   2477     1
   2466   2470     1
   2466   2471     1
   2466   2473     1
   2466   2474     1
   2466   2491     1
   2466   2492     1
   2467   2469     1
   2467   2472     1
   2467   2490     1
   2467   2479     1
   2467   2480     1
   2468   2469     1
   2468   2472     1
   2468   2490     1
   2468   2479     1
   2468   2480     1
   2469   2473     1
   2469   2474     1
   2469   2488     1
   2469   2489     1
   2470   2472     1
   2470   2487     1
   2470   2482     1
   2470   2483     1
   2471   2472     1
   2471   2487     1
   2471   2482     1
   2471   2483     1
   2472   2485     1
   2472   2486     1
   2473   2484     1
   2473   2476     1
   2473   2477     1
   2474   2484     1
   2474   2476     1
   2474   2477     1
   2476   2493     1
   2476   2485     1
   2476   2486     1
   2477   2493     1
   2477   2485     1
   2477   2486     1
   2479   5205     1
   2479   2491     1
   2479   2492     1
   2480   5205     1
   2480   2491     1
   2480   2492     1
   2482   5174     1
   2482   2488     1
   2482   2489     1
   2483   5174     1
   2483   2488     1
   2483   2489     1
   2487   5145     1
   2487   5146     1
   2488   5144     1
   2489   5144     1
   2490   5176     1
   2490   5177     1
   2491   5175     1
   2492   5175     1
   2494   2508     1
   2494   2509     1
   2494   2511     1
   2494   2512     1
   2494   2505     1
   2494   2506     1
   2495   2499     1
   2495   2500     1
   2495   2502     1
   2495   2503     1
   2495   2520     1
   2495   2521     1
   2496   2498     1
   2496   2501     1
   2496   2519     1
   2496   2508     1
   2496   2509     1
   2497   2498     1
   2497   2501     1
   2497   2519     1
   2497   2508     1
   2497   2509     1
   2498   2502     1
   2498   2503     1
   2498   2517     1
   2498   2518     1
   2499   2501     1
   2499   2516     1
   2499   2511     1
   2499   2512     1
   2500   2501     1
   2500   2516     1
   2500   2511     1
   2500   2512     1
   2501   2514     1
   2501   2515     1
   2502   2513     1
   2502   2505     1
   2502   2506     1
   2503   2513     1
   2503   2505     1
   2503   2506     1
   2505   2522     1
   2505   2514     1
   2505   2515     1
   2506   2522     1
   2506   2514     1
   2506   2515     1
   2508   5267     1
   2508   2520     1
   2508   2521     1
   2509   5267     1
   2509   2520     1
   2509   2521     1
   2511   5236     1
   2511   2517     1
   2511   2518     1
   2512   5236     1
   2512   2517     1
   2512   2518     1
   2516   5207     1
   2516   5208     1
   2517   5206     1
   2518   5206     1
   2519   5238     1
   2519   5239     1
   2520   5237     1
   2521   5237     1
   2523   2537     1
   2523   2538     1
   2523   2540     1
   2523   2541     1
   2523   2534     1
   2523   2535     1
   2524   2528     1
   2524   2529     1
   2524   2531     1
   2524   2532     1
   2524   2549     1
   2524   2550     1
   2525   2527     1
   2525   2530     1
   2525   2548     1
   2525   2537     1
   2525   2538     1
   2526   2527     1
   2526   2530     1
   2526   2548     1
   2526   2537     1
   2526   2538     1
   2527   2531     1
   2527   2532     1
   2527   2546     1
   2527   2547     1
   2528   2530     1
   2528   2545     1
   2528   2540     1
   2528   2541     1
   2529   2530     1
   2529   2545     1
   2529   2540     1
   2529   2541     1
   2530   2543     1
   2530   2544     1
   2531   2542     1
   2531   2534     1
   2531   2535     1
   2532   2542     1
   2532   2534     1
   2532   2535     1
   2534   2551     1
   2534   2543     1
   2534   2544     1
   2535   2551     1
   2535   2543     1
   2535   2544     1
   2537   5329     1
   2537   2549     1
   2537   2550     1
   2538   5329     1
   2538   2549     1
   2538   2550     1
   2540   5298     1
   2540   2546     1
   2540   2547     1
   2541   5298     1
   2541   2546     1
   2541   2547     1
   2545   5269     1
   2545   5270     1
   2546   5268     1
   2547   5268     1
   2548   5300     1
   2548   5301     1
   2549   5299     1
   2550   5299     1
   2552   2566     1
   2552   2567     1
   2552   2569     1
   2552   2570     1
   2552   2563     1
   2552   2564     1
   2553   2557     1
   2553   2558     1
   2553   2560     1
   2553   2561     1
   2553   2578     1
   2553   2579     1
   2554   2556     1
   2554   2559     1
   2554   2577     1
   2554   2566     1
   2554   2567     1
   2555   2556     1
   2555   2559     1
   2555   2577     1
   2555   2566     1
   2555   2567     1
   2556   2560     1
   2556   2561     1
   2556   2575     1
   2556   2576     1
   2557   2559     1
   2557   2574     1
   2557   2569     1
   2557   2570     1
   2558   2559     1
   2558   2574     1
   2558   2569     1
   2558   2570     1
   2559   2572     1
   2559   2573     1
   2560   2571     1
   2560   2563     1
   2560   2564     1
   2561   2571     1
   2561   2563     1
   2561   2564     1
   2563   2580     1
   2563   2572     1
   2563   2573     1
   2564   2580     1
   2564   2572     1
   2564   2573     1
   2566   5391     1
   2566   2578     1
   2566   2579     1
   2567   5391     1
   2567   2578     1
   2567   2579     1
   2569   5360     1
   2569   2575     1
   2569   2576     1
   2570   5360     1
   2570   2575     1
   2570   2576     1
   2574   5331     1
   2574   5332     1
   2575   5330     1
   2576   5330     1
   2577   5362     1
   2577   5363     1
   2578   5361     1
   2579   5361     1
   2581   2595     1
   2581   2596     1
   2581   2598     1
   2581   2599     1
   2581   2592     1
   2581   2593     1
   2582   2586     1
   2582   2587     1
   2582   2589     1
   2582   2590     1
   2582   2607     1
   2582   2608     1
   2583   2585     1
   2583   2588     1
   2583   2606     1
   2583   2595     1
   2583   2596     1
   2584   2585     1
   2584   2588     1
   2584   2606     1
   2584   2595     1
   2584   2596     1
   2585   2589     1
   2585   2590     1
   2585   2604     1
   2585   2605     1
   2586   2588     1
   2586   2603     1
   2586   2598     1
   2586   2599     1
   2587   2588     1
   2587   2603     1
   2587   2598     1
   2587   2599     1
   2588   2601     1
   2588   2602     1
   2589   2600     1
   2589   2592     1
   2589   2593     1
   2590   2600     1
   2590   2592     1
   2590   2593     1
   2592   2609     1
   2592   2601     1
   2592   2602     1
   2593   2609     1
   2593   2601     1
   2593   2602     1
   2595   5453     1
   2595   2607     1
   2595   2608     1
   2596   5453     1
   2596   2607     1
   2596   2608     1
   2598   5422     1
   2598   2604     1
   2598   2605     1
   2599   5422     1
   2599   2604     1
   2599   2605     1
   2603   5393     1
   2603   5394     1
   2604   5392     1
   2605   5392     1
   2606   5424     1
   2606   5425     1
   2607   5423     1
   2608   5423     1
   2610   2624     1
   2610   2625     1
   2610   2627     1
   2610   2628     1
   2610   2621     1
   2610   2622     1
   2611   2615     1
   2611   2616     1
   2611   2618     1
   2611   2619     1
   2611   2636     1
   2611   2637     1
   2612   2614     1
   2612   2617     1
   2612   2635     1
   2612   2624     1
   2612   2625     1
   2613   2614     1
   2613   2617     1
   2613   2635     1
   2613   2624     1
   2613   2625     1
   2614   2618     1
   2614   2619     1
   2614   2633     1
   2614   2634     1
   2615   2617     1
   2615   2632     1
   2615   2627     1
   2615   2628     1
   2616   2617     1
   2616   2632     1
   2616   2627     1
   2616   2628     1
   2617   2630     1
   2617   2631     1
   2618   2629     1
   2618   2621     1
   2618   2622     1
   2619   2629     1
   2619   2621     1
   2619   2622     1
   2621   2638     1
   2621   2630     1
   2621   2631     1
   2622   2638     1
   2622   2630     1
   2622   2631     1
   2624   5515     1
   2624   2636     1
   2624   2637     1
   2625   5515     1
   2625   2636     1
   2625   2637     1
   2627   5484     1
   2627   2633     1
   2627   2634     1
   2628   5484     1
   2628   2633     1
   2628   2634     1
   2632   5455     1
   2632   5456     1
   2633   5454     1
   2634   5454     1
   2635   5486     1
   2635   5487     1
   2636   5485     1
   2637   5485     1
   2639   2653     1
   2639   2654     1
   2639   2656     1
   2639   2657     1
   2639   2650     1
   2639   2651     1
   2640   2644     1
   2640   2645     1
   2640   2647     1
   2640   2648     1
   2640   2665     1
   2640   2666     1
   2641   2643     1
   2641   2646     1
   2641   2664     1
   2641   2653     1
   2641   2654     1
   2642   2643     1
   2642   2646     1
   2642   2664     1
   2642   2653     1
   2642   2654     1
   2643   2647     1
   2643   2648     1
   2643   2662     1
   2643   2663     1
   2644   2646     1
   2644   2661     1
   2644   2656     1
   2644   2657     1
   2645   2646     1
   2645   2661     1
   2645   2656     1
   2645   2657     1
   2646   2659     1
   2646   2660     1
   2647   2658     1
   2647   2650     1
   2647   2651     1
   2648   2658     1
   2648   2650     1
   2648   2651     1
   2650   2667     1
   2650   2659     1
   2650   2660     1
   2651   2667     1
   2651   2659     1
   2651   2660     1
   2653   5577     1
   2653   2665     1
   2653   2666     1
   2654   5577     1
   2654   2665     1
   2654   2666     1
   2656   5546     1
   2656   2662     1
   2656   2663     1
   2657   5546     1
   2657   2662     1
   2657   2663     1
   2661   5517     1
   2661   5518     1
   2662   5516     1
   2663   5516     1
   2664   5548     1
   2664   5549     1
   2665   5547     1
   2666   5547     1
   2668   2682     1
   2668   2683     1
   2668   2685     1
   2668   2686     1
   2668   2679     1
   2668   2680     1
   2669   2673     1
   2669   2674     1
   2669   2676     1
   2669   2677     1
   2669   2694     1
   2669   2695     1
   2670   2672     1
   2670   2675     1
   2670   2693     1
   2670   2682     1
   2670   2683     1
   2671   2672     1
   2671   2675     1
   2671   2693     1
   2671   2682     1
   2671   2683     1
   2672   2676     1
   2672   2677     1
   2672   2691     1
   2672   2692     1
   2673   2675     1
   2673   2690     1
   2673   2685     1
   2673   2686     1
   2674   2675     1
   2674   2690     1
   2674   2685     1
   2674   2686     1
   2675   2688     1
   2675   2689     1
   2676   2687     1
   2676   2679     1
   2676   2680     1
   2677   2687     1
   2677   2679     1
   2677   2680     1
   2679   2696     1
   2679   2688     1
   2679   2689     1
   2680   2696     1
   2680   2688     1
   2680   2689     1
   2682   5639     1
   2682   2694     1
   2682   2695     1
   2683   5639     1
   2683   2694     1
   2683   2695     1
   2685   5608     1
   2685   2691     1
   2685   2692     1
   2686   5608     1
   2686   2691     1
   2686   2692     1
   2690   5579     1
   2690   5580     1
   2691   5578     1
   2692   5578     1
   2693   5610     1
   2693   5611     1
   2694   5609     1
   2695   5609     1
   2697   2711     1
   2697   2712     1
   2697   2714     1
   2697   2715     1
   2697   2708     1
   2697   2709     1
   2698   2702     1
   2698   2703     1
   2698   2705     1
   2698   2706     1
   2698   2723     1
   2698   2724     1
   2699   2701     1
   2699   2704     1
   2699   2722     1
   2699   2711     1
   2699   2712     1
   2700   2701     1
   2700   2704     1
   2700   2722     1
   2700   2711     1
   2700   2712     1
   2701   2705     1
   2701   2706     1
   2701   2720     1
   2701   2721     1
   2702   2704     1
   2702   2719     1
   2702   2714     1
   2702   2715     1
   2703   2704     1
   2703   2719     1
   2703   2714     1
   2703   2715     1
   2704   2717     1
   2704   2718     1
   2705   2716     1
   2705   2708     1
   2705   2709     1
   2706   2716     1
   2706   2708     1
   2706   2709     1
   2708   2725     1
   2708   2717     1
   2708   2718     1
   2709   2725     1
   2709   2717     1
   2709   2718     1
   2711   5701     1
   2711   2723     1
   2711   2724     1
   2712   5701     1
   2712   2723     1
   2712   2724     1
   2714   5670     1
   2714   2720     1
   2714   2721     1
   2715   5670     1
   2715   2720     1
   2715   2721     1
   2719   5641     1
   2719   5642     1
   2720   5640     1
   2721   5640     1
   2722   5672     1
   2722   5673     1
   2723   5671     1
   2724   5671     1
   2726   2733     1
   2726   2734     1
   2727   2732     1
   2727   2730     1
   2727   2731     1
   2728   2732     1
   2728   2730     1
   2728   2731     1
   2730   2756     1
   2730   2735     1
   2730   2733     1
   2730   2734     1
   2731   2756     1
   2731   2735     1
   2731   2733     1
   2731   2734     1
   2732   2737     1
   2732   2738     1
   2732   2747     1
   2732   2748     1
   2733   2736     1
   2733   2746     1
   2734   2736     1
   2734   2746     1
   2735   2740     1
   2735   2741     1
   2735   2750     1
   2735   2751     1
   2736   2747     1
   2736   2748     1
   2737   2746     1
   2737   2742     1
   2737   2740     1
   2737   2741     1
   2738   2746     1
   2738   2742     1
   2738   2740     1
   2738   2741     1
   2739   2745     1
   2740   2743     1
   2740   2744     1
   2741   2743     1
   2741   2744     1
   2743   2745     1
   2747   2752     1
   2747   2750     1
   2747   2751     1
   2748   2752     1
   2748   2750     1
   2748   2751     1
   2749   2755     1
   2750   2753     1
   2750   2754     1
   2751   2753     1
   2751   2754     1
   2753   2755     1
   2757   2764     1
   2757   2765     1
   2758   2763     1
   2758   2761     1
   2758   2762     1
   2759   2763     1
   2759   2761     1
   2759   2762     1
   2761   2766     1
   2761   2764     1
   2761   2765     1
   2761   2787     1
   2762   2766     1
   2762   2764     1
   2762   2765     1
   2762   2787     1
   2763   2768     1
   2763   2769     1
   2763   2778     1
   2763   2779     1
   2764   2767     1
   2764   2777     1
   2765   2767     1
   2765   2777     1
   2766   2771     1
   2766   2772     1
   2766   2781     1
   2766   2782     1
   2767   2778     1
   2767   2779     1
   2768   2773     1
   2768   2771     1
   2768   2772     1
   2768   2777     1
   2769   2773     1
   2769   2771     1
   2769   2772     1
   2769   2777     1
   2770   2776     1
   2771   2774     1
   2771   2775     1
   2772   2774     1
   2772   2775     1
   2774   2776     1
   2778   2783     1
   2778   2781     1
   2778   2782     1
   2779   2783     1
   2779   2781     1
   2779   2782     1
   2780   2786     1
   2781   2784     1
   2781   2785     1
   2782   2784     1
   2782   2785     1
   2784   2786     1
   2788   2795     1
   2788   2796     1
   2789   2794     1
   2789   2792     1
   2789   2793     1
   2790   2794     1
   2790   2792     1
   2790   2793     1
   2792   2818     1
   2792   2797     1
   2792   2795     1
   2792   2796     1
   2793   2818     1
   2793   2797     1
   2793   2795     1
   2793   2796     1
   2794   2799     1
   2794   2800     1
   2794   2809     1
   2794   2810     1
   2795   2798     1
   2795   2808     1
   2796   2798     1
   2796   2808     1
   2797   2802     1
   2797   2803     1
   2797   2812     1
   2797   2813     1
   2798   2809     1
   2798   2810     1
   2799   2808     1
   2799   2804     1
   2799   2802     1
   2799   2803     1
   2800   2808     1
   2800   2804     1
   2800   2802     1
   2800   2803     1
   2801   2807     1
   2802   2805     1
   2802   2806     1
   2803   2805     1
   2803   2806     1
   2805   2807     1
   2809   2814     1
   2809   2812     1
   2809   2813     1
   2810   2814     1
   2810   2812     1
   2810   2813     1
   2811   2817     1
   2812   2815     1
   2812   2816     1
   2813   2815     1
   2813   2816     1
   2815   2817     1
   2819   2826     1
   2819   2827     1
   2820   2825     1
   2820   2823     1
   2820   2824     1
   2821   2825     1
   2821   2823     1
   2821   2824     1
   2823   2828     1
   2823   2826     1
   2823   2827     1
   2823   2849     1
   2824   2828     1
   2824   2826     1
   2824   2827     1
   2824   2849     1
   2825   2830     1
   2825   2831     1
   2825   2840     1
   2825   2841     1
   2826   2829     1
   2826   2839     1
   2827   2829     1
   2827   2839     1
   2828   2833     1
   2828   2834     1
   2828   2843     1
   2828   2844     1
   2829   2840     1
   2829   2841     1
   2830   2835     1
   2830   2833     1
   2830   2834     1
   2830   2839     1
   2831   2835     1
   2831   2833     1
   2831   2834     1
   2831   2839     1
   2832   2838     1
   2833   2836     1
   2833   2837     1
   2834   2836     1
   2834   2837     1
   2836   2838     1
   2840   2845     1
   2840   2843     1
   2840   2844     1
   2841   2845     1
   2841   2843     1
   2841   2844     1
   2842   2848     1
   2843   2846     1
   2843   2847     1
   2844   2846     1
   2844   2847     1
   2846   2848     1
   2850   2857     1
   2850   2858     1
   2851   2856     1
   2851   2854     1
   2851   2855     1
   2852   2856     1
   2852   2854     1
   2852   2855     1
   2854   2880     1
   2854   2859     1
   2854   2857     1
   2854   2858     1
   2855   2880     1
   2855   2859     1
   2855   2857     1
   2855   2858     1
   2856   2861     1
   2856   2862     1
   2856   2871     1
   2856   2872     1
   2857   2860     1
   2857   2870     1
   2858   2860     1
   2858   2870     1
   2859   2864     1
   2859   2865     1
   2859   2874     1
   2859   2875     1
   2860   2871     1
   2860   2872     1
   2861   2870     1
   2861   2866     1
   2861   2864     1
   2861   2865     1
   2862   2870     1
   2862   2866     1
   2862   2864     1
   2862   2865     1
   2863   2869     1
   2864   2867     1
   2864   2868     1
   2865   2867     1
   2865   2868     1
   2867   2869     1
   2871   2876     1
   2871   2874     1
   2871   2875     1
   2872   2876     1
   2872   2874     1
   2872   2875     1
   2873   2879     1
   2874   2877     1
   2874   2878     1
   2875   2877     1
   2875   2878     1
   2877   2879     1
   2881   2888     1
   2881   2889     1
   2882   2887     1
   2882   2885     1
   2882   2886     1
   2883   2887     1
   2883   2885     1
   2883   2886     1
   2885   2890     1
   2885   2888     1
   2885   2889     1
   2885   2911     1
   2886   2890     1
   2886   2888     1
   2886   2889     1
   2886   2911     1
   2887   2892     1
   2887   2893     1
   2887   2902     1
   2887   2903     1
   2888   2891     1
   2888   2901     1
   2889   2891     1
   2889   2901     1
   2890   2895     1
   2890   2896     1
   2890   2905     1
   2890   2906     1
   2891   2902     1
   2891   2903     1
   2892   2897     1
   2892   2895     1
   2892   2896     1
   2892   2901     1
   2893   2897     1
   2893   2895     1
   2893   2896     1
   2893   2901     1
   2894   2900     1
   2895   2898     1
   2895   2899     1
   2896   2898     1
   2896   2899     1
   2898   2900     1
   2902   2907     1
   2902   2905     1
   2902   2906     1
   2903   2907     1
   2903   2905     1
   2903   2906     1
   2904   2910     1
   2905   2908     1
   2905   2909     1
   2906   2908     1
   2906   2909     1
   2908   2910     1
   2912   2919     1
   2912   2920     1
   2913   2918     1
   2913   2916     1
   2913   2917     1
   2914   2918     1
   2914   2916     1
   2914   2917     1
   2916   2942     1
   2916   2921     1
   2916   2919     1
   2916   2920     1
   2917   2942     1
   2917   2921     1
   2917   2919     1
   2917   2920     1
   2918   2923     1
   2918   2924     1
   2918   2933     1
   2918   2934     1
   2919   2922     1
   2919   2932     1
   2920   2922     1
   2920   2932     1
   2921   2926     1
   2921   2927     1
   2921   2936     1
   2921   2937     1
   2922   2933     1
   2922   2934     1
   2923   2932     1
   2923   2928     1
   2923   2926     1
   2923   2927     1
   2924   2932     1
   2924   2928     1
   2924   2926     1
   2924   2927     1
   2925   2931     1
   2926   2929     1
   2926   2930     1
   2927   2929     1
   2927   2930     1
   2929   2931     1
   2933   2938     1
   2933   2936     1
   2933   2937     1
   2934   2938     1
   2934   2936     1
   2934   2937     1
   2935   2941     1
   2936   2939     1
   2936   2940     1
   2937   2939     1
   2937   2940     1
   2939   2941     1
   2943   2950     1
   2943   2951     1
   2944   2949     1
   2944   2947     1
   2944   2948     1
   2945   2949     1
   2945   2947     1
   2945   2948     1
   2947   2952     1
   2947   2950     1
   2947   2951     1
   2947   2973     1
   2948   2952     1
   2948   2950     1
   2948   2951     1
   2948   2973     1
   2949   2954     1
   2949   2955     1
   2949   2964     1
   2949   2965     1
   2950   2953     1
   2950   2963     1
   2951   2953     1
   2951   2963     1
   2952   2957     1
   2952   2958     1
   2952   2967     1
   2952   2968     1
   2953   2964     1
   2953   2965     1
   2954   2959     1
   2954   2957     1
   2954   2958     1
   2954   2963     1
   2955   2959     1
   2955   2957     1
   2955   2958     1
   2955   2963     1
   2956   2962     1
   2957   2960     1
   2957   2961     1
   2958   2960     1
   2958   2961     1
   2960   2962     1
   2964   2969     1
   2964   2967     1
   2964   2968     1
   2965   2969     1
   2965   2967     1
   2965   2968     1
   2966   2972     1
   2967   2970     1
   2967   2971     1
   2968   2970     1
   2968   2971     1
   2970   2972     1
   2974   2981     1
   2974   2982     1
   2975   2980     1
   2975   2978     1
   2975   2979     1
   2976   2980     1
   2976   2978     1
   2976   2979     1
   2978   3004     1
   2978   2983     1
   2978   2981     1
   2978   2982     1
   2979   3004     1
   2979   2983     1
   2979   2981     1
   2979   2982     1
   2980   2985     1
   2980   2986     1
   2980   2995     1
   2980   2996     1
   2981   2984     1
   2981   2994     1
   2982   2984     1
   2982   2994     1
   2983   2988     1
   2983   2989     1
   2983   2998     1
   2983   2999     1
   2984   2995     1
   2984   2996     1
   2985   2994     1
   2985   2990     1
   2985   2988     1
   2985   2989     1
   2986   2994     1
   2986   2990     1
   2986   2988     1
   2986   2989     1
   2987   2993     1
   2988   2991     1
   2988   2992     1
   2989   2991     1
   2989   2992     1
   2991   2993     1
   2995   3000     1
   2995   2998     1
   2995   2999     1
   2996   3000     1
   2996   2998     1
   2996   2999     1
   2997   3003     1
   2998   3001     1
   2998   3002     1
   2999   3001     1
   2999   3002     1
   3001   3003     1
   3005   3012     1
   3005   3013     1
   3006   3011     1
   3006   3009     1
   3006   3010     1
   3007   3011     1
   3007   3009     1
   3007   3010     1
   3009   3014     1
   3009   3012     1
   3009   3013     1
   3009   3035     1
   3010   3014     1
   3010   3012     1
   3010   3013     1
   3010   3035     1
   3011   3016     1
   3011   3017     1
   3011   3026     1
   3011   3027     1
   3012   3015     1
   3012   3025     1
   3013   3015     1
   3013   3025     1
   3014   3019     1
   3014   3020     1
   3014   3029     1
   3014   3030     1
   3015   3026     1
   3015   3027     1
   3016   3021     1
   3016   3019     1
   3016   3020     1
   3016   3025     1
   3017   3021     1
   3017   3019     1
   3017   3020     1
   3017   3025     1
   3018   3024     1
   3019   3022     1
   3019   3023     1
   3020   3022     1
   3020   3023     1
   3022   3024     1
   3026   3031     1
   3026   3029     1
   3026   3030     1
   3027   3031     1
   3027   3029     1
   3027   3030     1
   3028   3034     1
   3029   3032     1
   3029   3033     1
   3030   3032     1
   3030   3033     1
   3032   3034     1
   3036   3043     1
   3036   3044     1
   3037   3042     1
   3037   3040     1
   3037   3041     1
   3038   3042     1
   3038   3040     1
   3038   3041     1
   3040   3066     1
   3040   3045     1
   3040   3043     1
   3040   3044     1
   3041   3066     1
   3041   3045     1
   3041   3043     1
   3041   3044     1
   3042   3047     1
   3042   3048     1
   3042   3057     1
   3042   3058     1
   3043   3046     1
   3043   3056     1
   3044   3046     1
   3044   3056     1
   3045   3050     1
   3045   3051     1
   3045   3060     1
   3045   3061     1
   3046   3057     1
   3046   3058     1
   3047   3056     1
   3047   3052     1
   3047   3050     1
   3047   3051     1
   3048   3056     1
   3048   3052     1
   3048   3050     1
   3048   3051     1
   3049   3055     1
   3050   3053     1
   3050   3054     1
   3051   3053     1
   3051   3054     1
   3053   3055     1
   3057   3062     1
   3057   3060     1
   3057   3061     1
   3058   3062     1
   3058   3060     1
   3058   3061     1
   3059   3065     1
   3060   3063     1
   3060   3064     1
   3061   3063     1
   3061   3064     1
   3063   3065     1
   3067   3074     1
   3067   3075     1
   3068   3073     1
   3068   3071     1
   3068   3072     1
   3069   3073     1
   3069   3071     1
   3069   3072     1
   3071   3076     1
   3071   3074     1
   3071   3075     1
   3071   3097     1
   3072   3076     1
   3072   3074     1
   3072   3075     1
   3072   3097     1
   3073   3078     1
   3073   3079     1
   3073   3088     1
   3073   3089     1
   3074   3077     1
   3074   3087     1
   3075   3077     1
   3075   3087     1
   3076   3081     1
   3076   3082     1
   3076   3091     1
   3076   3092     1
   3077   3088     1
   3077   3089     1
   3078   3083     1
   3078   3081     1
   3078   3082     1
   3078   3087     1
   3079   3083     1
   3079   3081     1
   3079   3082     1
   3079   3087     1
   3080   3086     1
   3081   3084     1
   3081   3085     1
   3082   3084     1
   3082   3085     1
   3084   3086     1
   3088   3093     1
   3088   3091     1
   3088   3092     1
   3089   3093     1
   3089   3091     1
   3089   3092     1
   3090   3096     1
   3091   3094     1
   3091   3095     1
   3092   3094     1
   3092   3095     1
   3094   3096     1
   3098   3105     1
   3098   3106     1
   3099   3104     1
   3099   3102     1
   3099   3103     1
   3100   3104     1
   3100   3102     1
   3100   3103     1
   3102   3128     1
   3102   3107     1
   3102   3105     1
   3102   3106     1
   3103   3128     1
   3103   3107     1
   3103   3105     1
   3103   3106     1
   3104   3109     1
   3104   3110     1
   3104   3119     1
   3104   3120     1
   3105   3108     1
   3105   3118     1
   3106   3108     1
   3106   3118     1
   3107   3112     1
   3107   3113     1
   3107   3122     1
   3107   3123     1
   3108   3119     1
   3108   3120     1
   3109   3118     1
   3109   3114     1
   3109   3112     1
   3109   3113     1
   3110   3118     1
   3110   3114     1
   3110   3112     1
   3110   3113     1
   3111   3117     1
   3112   3115     1
   3112   3116     1
   3113   3115     1
   3113   3116     1
   3115   3117     1
   3119   3124     1
   3119   3122     1
   3119   3123     1
   3120   3124     1
   3120   3122     1
   3120   3123     1
   3121   3127     1
   3122   3125     1
   3122   3126     1
   3123   3125     1
   3123   3126     1
   3125   3127     1
   3129   3136     1
   3129   3137     1
   3130   3135     1
   3130   3133     1
   3130   3134     1
   3131   3135     1
   3131   3133     1
   3131   3134     1
   3133   3138     1
   3133   3136     1
   3133   3137     1
   3133   3159     1
   3134   3138     1
   3134   3136     1
   3134   3137     1
   3134   3159     1
   3135   3140     1
   3135   3141     1
   3135   3150     1
   3135   3151     1
   3136   3139     1
   3136   3149     1
   3137   3139     1
   3137   3149     1
   3138   3143     1
   3138   3144     1
   3138   3153     1
   3138   3154     1
   3139   3150     1
   3139   3151     1
   3140   3145     1
   3140   3143     1
   3140   3144     1
   3140   3149     1
   3141   3145     1
   3141   3143     1
   3141   3144     1
   3141   3149     1
   3142   3148     1
   3143   3146     1
   3143   3147     1
   3144   3146     1
   3144   3147     1
   3146   3148     1
   3150   3155     1
   3150   3153     1
   3150   3154     1
   3151   3155     1
   3151   3153     1
   3151   3154     1
   3152   3158     1
   3153   3156     1
   3153   3157     1
   3154   3156     1
   3154   3157     1
   3156   3158     1
   3160   3167     1
   3160   3168     1
   3161   3166     1
   3161   3164     1
   3161   3165     1
   3162   3166     1
   3162   3164     1
   3162   3165     1
   3164   3190     1
   3164   3169     1
   3164   3167     1
   3164   3168     1
   3165   3190     1
   3165   3169     1
   3165   3167     1
   3165   3168     1
   3166   3171     1
   3166   3172     1
   3166   3181     1
   3166   3182     1
   3167   3170     1
   3167   3180     1
   3168   3170     1
   3168   3180     1
   3169   3174     1
   3169   3175     1
   3169   3184     1
   3169   3185     1
   3170   3181     1
   3170   3182     1
   3171   3180     1
   3171   3176     1
   3171   3174     1
   3171   3175     1
   3172   3180     1
   3172   3176     1
   3172   3174     1
   3172   3175     1
   3173   3179     1
   3174   3177     1
   3174   3178     1
   3175   3177     1
   3175   3178     1
   3177   3179     1
   3181   3186     1
   3181   3184     1
   3181   3185     1
   3182   3186     1
   3182   3184     1
   3182   3185     1
   3183   3189     1
   3184   3187     1
   3184   3188     1
   3185   3187     1
   3185   3188     1
   3187   3189     1
   3191   3198     1
   3191   3199     1
   3192   3197     1
   3192   3195     1
   3192   3196     1
   3193   3197     1
   3193   3195     1
   3193   3196     1
   3195   3200     1
   3195   3198     1
   3195   3199     1
   3195   3221     1
   3196   3200     1
   3196   3198     1
   3196   3199     1
   3196   3221     1
   3197   3202     1
   3197   3203     1
   3197   3212     1
   3197   3213     1
   3198   3201     1
   3198   3211     1
   3199   3201     1
   3199   3211     1
   3200   3205     1
   3200   3206     1
   3200   3215     1
   3200   3216     1
   3201   3212     1
   3201   3213     1
   3202   3207     1
   3202   3205     1
   3202   3206     1
   3202   3211     1
   3203   3207     1
   3203   3205     1
   3203   3206     1
   3203   3211     1
   3204   3210     1
   3205   3208     1
   3205   3209     1
   3206   3208     1
   3206   3209     1
   3208   3210     1
   3212   3217     1
   3212   3215     1
   3212   3216     1
   3213   3217     1
   3213   3215     1
   3213   3216     1
   3214   3220     1
   3215   3218     1
   3215   3219     1
   3216   3218     1
   3216   3219     1
   3218   3220     1
   3222   3229     1
   3222   3230     1
   3223   3228     1
   3223   3226     1
   3223   3227     1
   3224   3228     1
   3224   3226     1
   3224   3227     1
   3226   3252     1
   3226   3231     1
   3226   3229     1
   3226   3230     1
   3227   3252     1
   3227   3231     1
   3227   3229     1
   3227   3230     1
   3228   3233     1
   3228   3234     1
   3228   3243     1
   3228   3244     1
   3229   3232     1
   3229   3242     1
   3230   3232     1
   3230   3242     1
   3231   3236     1
   3231   3237     1
   3231   3246     1
   3231   3247     1
   3232   3243     1
   3232   3244     1
   3233   3242     1
   3233   3238     1
   3233   3236     1
   3233   3237     1
   3234   3242     1
   3234   3238     1
   3234   3236     1
   3234   3237     1
   3235   3241     1
   3236   3239     1
   3236   3240     1
   3237   3239     1
   3237   3240     1
   3239   3241     1
   3243   3248     1
   3243   3246     1
   3243   3247     1
   3244   3248     1
   3244   3246     1
   3244   3247     1
   3245   3251     1
   3246   3249     1
   3246   3250     1
   3247   3249     1
   3247   3250     1
   3249   3251     1
   3253   3260     1
   3253   3261     1
   3254   3259     1
   3254   3257     1
   3254   3258     1
   3255   3259     1
   3255   3257     1
   3255   3258     1
   3257   3262     1
   3257   3260     1
   3257   3261     1
   3257   3283     1
   3258   3262     1
   3258   3260     1
   3258   3261     1
   3258   3283     1
   3259   3264     1
   3259   3265     1
   3259   3274     1
   3259   3275     1
   3260   3263     1
   3260   3273     1
   3261   3263     1
   3261   3273     1
   3262   3267     1
   3262   3268     1
   3262   3277     1
   3262   3278     1
   3263   3274     1
   3263   3275     1
   3264   3269     1
   3264   3267     1
   3264   3268     1
   3264   3273     1
   3265   3269     1
   3265   3267     1
   3265   3268     1
   3265   3273     1
   3266   3272     1
   3267   3270     1
   3267   3271     1
   3268   3270     1
   3268   3271     1
   3270   3272     1
   3274   3279     1
   3274   3277     1
   3274   3278     1
   3275   3279     1
   3275   3277     1
   3275   3278     1
   3276   3282     1
   3277   3280     1
   3277   3281     1
   3278   3280     1
   3278   3281     1
   3280   3282     1
   3284   3291     1
   3284   3292     1
   3285   3290     1
   3285   3288     1
   3285   3289     1
   3286   3290     1
   3286   3288     1
   3286   3289     1
   3288   3314     1
   3288   3293     1
   3288   3291     1
   3288   3292     1
   3289   3314     1
   3289   3293     1
   3289   3291     1
   3289   3292     1
   3290   3295     1
   3290   3296     1
   3290   3305     1
   3290   3306     1
   3291   3294     1
   3291   3304     1
   3292   3294     1
   3292   3304     1
   3293   3298     1
   3293   3299     1
   3293   3308     1
   3293   3309     1
   3294   3305     1
   3294   3306     1
   3295   3304     1
   3295   3300     1
   3295   3298     1
   3295   3299     1
   3296   3304     1
   3296   3300     1
   3296   3298     1
   3296   3299     1
   3297   3303     1
   3298   3301     1
   3298   3302     1
   3299   3301     1
   3299   3302     1
   3301   3303     1
   3305   3310     1
   3305   3308     1
   3305   3309     1
   3306   3310     1
   3306   3308     1
   3306   3309     1
   3307   3313     1
   3308   3311     1
   3308   3312     1
   3309   3311     1
   3309   3312     1
   3311   3313     1
   3315   3322     1
   3315   3323     1
   3316   3321     1
   3316   3319     1
   3316   3320     1
   3317   3321     1
   3317   3319     1
   3317   3320     1
   3319   3324     1
   3319   3322     1
   3319   3323     1
   3319   3345     1
   3320   3324     1
   3320   3322     1
   3320   3323     1
   3320   3345     1
   3321   3326     1
   3321   3327     1
   3321   3336     1
   3321   3337     1
   3322   3325     1
   3322   3335     1
   3323   3325     1
   3323   3335     1
   3324   3329     1
   3324   3330     1
   3324   3339     1
   3324   3340     1
   3325   3336     1
   3325   3337     1
   3326   3331     1
   3326   3329     1
   3326   3330     1
   3326   3335     1
   3327   3331     1
   3327   3329     1
   3327   3330     1
   3327   3335     1
   3328   3334     1
   3329   3332     1
   3329   3333     1
   3330   3332     1
   3330   3333     1
   3332   3334     1
   3336   3341     1
   3336   3339     1
   3336   3340     1
   3337   3341     1
   3337   3339     1
   3337   3340     1
   3338   3344     1
   3339   3342     1
   3339   3343     1
   3340   3342     1
   3340   3343     1
   3342   3344     1
   3346   3353     1
   3346   3354     1
   3347   3352     1
   3347   3350     1
   3347   3351     1
   3348   3352     1
   3348   3350     1
   3348   3351     1
   3350   3376     1
   3350   3355     1
   3350   3353     1
   3350   3354     1
   3351   3376     1
   3351   3355     1
   3351   3353     1
   3351   3354     1
   3352   3357     1
   3352   3358     1
   3352   3367     1
   3352   3368     1
   3353   3356     1
   3353   3366     1
   3354   3356     1
   3354   3366     1
   3355   3360     1
   3355   3361     1
   3355   3370     1
   3355   3371     1
   3356   3367     1
   3356   3368     1
   3357   3366     1
   3357   3362     1
   3357   3360     1
   3357   3361     1
   3358   3366     1
   3358   3362     1
   3358   3360     1
   3358   3361     1
   3359   3365     1
   3360   3363     1
   3360   3364     1
   3361   3363     1
   3361   3364     1
   3363   3365     1
   3367   3372     1
   3367   3370     1
   3367   3371     1
   3368   3372     1
   3368   3370     1
   3368   3371     1
   3369   3375     1
   3370   3373     1
   3370   3374     1
   3371   3373     1
   3371   3374     1
   3373   3375     1
   3377   3384     1
   3377   3385     1
   3378   3383     1
   3378   3381     1
   3378   3382     1
   3379   3383     1
   3379   3381     1
   3379   3382     1
   3381   3386     1
   3381   3384     1
   3381   3385     1
   3381   3407     1
   3382   3386     1
   3382   3384     1
   3382   3385     1
   3382   3407     1
   3383   3388     1
   3383   3389     1
   3383   3398     1
   3383   3399     1
   3384   3387     1
   3384   3397     1
   3385   3387     1
   3385   3397     1
   3386   3391     1
   3386   3392     1
   3386   3401     1
   3386   3402     1
   3387   3398     1
   3387   3399     1
   3388   3393     1
   3388   3391     1
   3388   3392     1
   3388   3397     1
   3389   3393     1
   3389   3391     1
   3389   3392     1
   3389   3397     1
   3390   3396     1
   3391   3394     1
   3391   3395     1
   3392   3394     1
   3392   3395     1
   3394   3396     1
   3398   3403     1
   3398   3401     1
   3398   3402     1
   3399   3403     1
   3399   3401     1
   3399   3402     1
   3400   3406     1
   3401   3404     1
   3401   3405     1
   3402   3404     1
   3402   3405     1
   3404   3406     1
   3408   3415     1
   3408   3416     1
   3409   3414     1
   3409   3412     1
   3409   3413     1
   3410   3414     1
   3410   3412     1
   3410   3413     1
   3412   3438     1
   3412   3417     1
   3412   3415     1
   3412   3416     1
   3413   3438     1
   3413   3417     1
   3413   3415     1
   3413   3416     1
   3414   3419     1
   3414   3420     1
   3414   3429     1
   3414   3430     1
   3415   3418     1
   3415   3428     1
   3416   3418     1
   3416   3428     1
   3417   3422     1
   3417   3423     1
   3417   3432     1
   3417   3433     1
   3418   3429     1
   3418   3430     1
   3419   3428     1
   3419   3424     1
   3419   3422     1
   3419   3423     1
   3420   3428     1
   3420   3424     1
   3420   3422     1
   3420   3423     1
   3421   3427     1
   3422   3425     1
   3422   3426     1
   3423   3425     1
   3423   3426     1
   3425   3427     1
   3429   3434     1
   3429   3432     1
   3429   3433     1
   3430   3434     1
   3430   3432     1
   3430   3433     1
   3431   3437     1
   3432   3435     1
   3432   3436     1
   3433   3435     1
   3433   3436     1
   3435   3437     1
   3439   3446     1
   3439   3447     1
   3440   3445     1
   3440   3443     1
   3440   3444     1
   3441   3445     1
   3441   3443     1
   3441   3444     1
   3443   3448     1
   3443   3446     1
   3443   3447     1
   3443   3469     1
   3444   3448     1
   3444   3446     1
   3444   3447     1
   3444   3469     1
   3445   3450     1
   3445   3451     1
   3445   3460     1
   3445   3461     1
   3446   3449     1
   3446   3459     1
   3447   3449     1
   3447   3459     1
   3448   3453     1
   3448   3454     1
   3448   3463     1
   3448   3464     1
   3449   3460     1
   3449   3461     1
   3450   3455     1
   3450   3453     1
   3450   3454     1
   3450   3459     1
   3451   3455     1
   3451   3453     1
   3451   3454     1
   3451   3459     1
   3452   3458     1
   3453   3456     1
   3453   3457     1
   3454   3456     1
   3454   3457     1
   3456   3458     1
   3460   3465     1
   3460   3463     1
   3460   3464     1
   3461   3465     1
   3461   3463     1
   3461   3464     1
   3462   3468     1
   3463   3466     1
   3463   3467     1
   3464   3466     1
   3464   3467     1
   3466   3468     1
   3470   3477     1
   3470   3478     1
   3471   3476     1
   3471   3474     1
   3471   3475     1
   3472   3476     1
   3472   3474     1
   3472   3475     1
   3474   3500     1
   3474   3479     1
   3474   3477     1
   3474   3478     1
   3475   3500     1
   3475   3479     1
   3475   3477     1
   3475   3478     1
   3476   3481     1
   3476   3482     1
   3476   3491     1
   3476   3492     1
   3477   3480     1
   3477   3490     1
   3478   3480     1
   3478   3490     1
   3479   3484     1
   3479   3485     1
   3479   3494     1
   3479   3495     1
   3480   3491     1
   3480   3492     1
   3481   3490     1
   3481   3486     1
   3481   3484     1
   3481   3485     1
   3482   3490     1
   3482   3486     1
   3482   3484     1
   3482   3485     1
   3483   3489     1
   3484   3487     1
   3484   3488     1
   3485   3487     1
   3485   3488     1
   3487   3489     1
   3491   3496     1
   3491   3494     1
   3491   3495     1
   3492   3496     1
   3492   3494     1
   3492   3495     1
   3493   3499     1
   3494   3497     1
   3494   3498     1
   3495   3497     1
   3495   3498     1
   3497   3499     1
   3501   3508     1
   3501   3509     1
   3502   3507     1
   3502   3505     1
   3502   3506     1
   3503   3507     1
   3503   3505     1
   3503   3506     1
   3505   3510     1
   3505   3508     1
   3505   3509     1
   3505   3531     1
   3506   3510     1
   3506   3508     1
   3506   3509     1
   3506   3531     1
   3507   3512     1
   3507   3513     1
   3507   3522     1
   3507   3523     1
   3508   3511     1
   3508   3521     1
   3509   3511     1
   3509   3521     1
   3510   3515     1
   3510   3516     1
   3510   3525     1
   3510   3526     1
   3511   3522     1
   3511   3523     1
   3512   3517     1
   3512   3515     1
   3512   3516     1
   3512   3521     1
   3513   3517     1
   3513   3515     1
   3513   3516     1
   3513   3521     1
   3514   3520     1
   3515   3518     1
   3515   3519     1
   3516   3518     1
   3516   3519     1
   3518   3520     1
   3522   3527     1
   3522   3525     1
   3522   3526     1
   3523   3527     1
   3523   3525     1
   3523   3526     1
   3524   3530     1
   3525   3528     1
   3525   3529     1
   3526   3528     1
   3526   3529     1
   3528   3530     1
   3532   3539     1
   3532   3540     1
   3533   3538     1
   3533   3536     1
   3533   3537     1
   3534   3538     1
   3534   3536     1
   3534   3537     1
   3536   3562     1
   3536   3541     1
   3536   3539     1
   3536   3540     1
   3537   3562     1
   3537   3541     1
   3537   3539     1
   3537   3540     1
   3538   3543     1
   3538   3544     1
   3538   3553     1
   3538   3554     1
   3539   3542     1
   3539   3552     1
   3540   3542     1
   3540   3552     1
   3541   3546     1
   3541   3547     1
   3541   3556     1
   3541   3557     1
   3542   3553     1
   3542   3554     1
   3543   3552     1
   3543   3548     1
   3543   3546     1
   3543   3547     1
   3544   3552     1
   3544   3548     1
   3544   3546     1
   3544   3547     1
   3545   3551     1
   3546   3549     1
   3546   3550     1
   3547   3549     1
   3547   3550     1
   3549   3551     1
   3553   3558     1
   3553   3556     1
   3553   3557     1
   3554   3558     1
   3554   3556     1
   3554   3557     1
   3555   3561     1
   3556   3559     1
   3556   3560     1
   3557   3559     1
   3557   3560     1
   3559   3561     1
   3563   3570     1
   3563   3571     1
   3564   3569     1
   3564   3567     1
   3564   3568     1
   3565   3569     1
   3565   3567     1
   3565   3568     1
   3567   3572     1
   3567   3570     1
   3567   3571     1
   3567   3593     1
   3568   3572     1
   3568   3570     1
   3568   3571     1
   3568   3593     1
   3569   3574     1
   3569   3575     1
   3569   3584     1
   3569   3585     1
   3570   3573     1
   3570   3583     1
   3571   3573     1
   3571   3583     1
   3572   3577     1
   3572   3578     1
   3572   3587     1
   3572   3588     1
   3573   3584     1
   3573   3585     1
   3574   3579     1
   3574   3577     1
   3574   3578     1
   3574   3583     1
   3575   3579     1
   3575   3577     1
   3575   3578     1
   3575   3583     1
   3576   3582     1
   3577   3580     1
   3577   3581     1
   3578   3580     1
   3578   3581     1
   3580   3582     1
   3584   3589     1
   3584   3587     1
   3584   3588     1
   3585   3589     1
   3585   3587     1
   3585   3588     1
   3586   3592     1
   3587   3590     1
   3587   3591     1
   3588   3590     1
   3588   3591     1
   3590   3592     1
   3594   3601     1
   3594   3602     1
   3595   3600     1
   3595   3598     1
   3595   3599     1
   3596   3600     1
   3596   3598     1
   3596   3599     1
   3598   3624     1
   3598   3603     1
   3598   3601     1
   3598   3602     1
   3599   3624     1
   3599   3603     1
   3599   3601     1
   3599   3602     1
   3600   3605     1
   3600   3606     1
   3600   3615     1
   3600   3616     1
   3601   3604     1
   3601   3614     1
   3602   3604     1
   3602   3614     1
   3603   3608     1
   3603   3609     1
   3603   3618     1
   3603   3619     1
   3604   3615     1
   3604   3616     1
   3605   3614     1
   3605   3610     1
   3605   3608     1
   3605   3609     1
   3606   3614     1
   3606   3610     1
   3606   3608     1
   3606   3609     1
   3607   3613     1
   3608   3611     1
   3608   3612     1
   3609   3611     1
   3609   3612     1
   3611   3613     1
   3615   3620     1
   3615   3618     1
   3615   3619     1
   3616   3620     1
   3616   3618     1
   3616   3619     1
   3617   3623     1
   3618   3621     1
   3618   3622     1
   3619   3621     1
   3619   3622     1
   3621   3623     1
   3625   3632     1
   3625   3633     1
   3626   3631     1
   3626   3629     1
   3626   3630     1
   3627   3631     1
   3627   3629     1
   3627   3630     1
   3629   3634     1
   3629   3632     1
   3629   3633     1
   3629   3655     1
   3630   3634     1
   3630   3632     1
   3630   3633     1
   3630   3655     1
   3631   3636     1
   3631   3637     1
   3631   3646     1
   3631   3647     1
   3632   3635     1
   3632   3645     1
   3633   3635     1
   3633   3645     1
   3634   3639     1
   3634   3640     1
   3634   3649     1
   3634   3650     1
   3635   3646     1
   3635   3647     1
   3636   3641     1
   3636   3639     1
   3636   3640     1
   3636   3645     1
   3637   3641     1
   3637   3639     1
   3637   3640     1
   3637   3645     1
   3638   3644     1
   3639   3642     1
   3639   3643     1
   3640   3642     1
   3640   3643     1
   3642   3644     1
   3646   3651     1
   3646   3649     1
   3646   3650     1
   3647   3651     1
   3647   3649     1
   3647   3650     1
   3648   3654     1
   3649   3652     1
   3649   3653     1
   3650   3652     1
   3650   3653     1
   3652   3654     1
   3656   3663     1
   3656   3664     1
   3657   3662     1
   3657   3660     1
   3657   3661     1
   3658   3662     1
   3658   3660     1
   3658   3661     1
   3660   3686     1
   3660   3665     1
   3660   3663     1
   3660   3664     1
   3661   3686     1
   3661   3665     1
   3661   3663     1
   3661   3664     1
   3662   3667     1
   3662   3668     1
   3662   3677     1
   3662   3678     1
   3663   3666     1
   3663   3676     1
   3664   3666     1
   3664   3676     1
   3665   3670     1
   3665   3671     1
   3665   3680     1
   3665   3681     1
   3666   3677     1
   3666   3678     1
   3667   3676     1
   3667   3672     1
   3667   3670     1
   3667   3671     1
   3668   3676     1
   3668   3672     1
   3668   3670     1
   3668   3671     1
   3669   3675     1
   3670   3673     1
   3670   3674     1
   3671   3673     1
   3671   3674     1
   3673   3675     1
   3677   3682     1
   3677   3680     1
   3677   3681     1
   3678   3682     1
   3678   3680     1
   3678   3681     1
   3679   3685     1
   3680   3683     1
   3680   3684     1
   3681   3683     1
   3681   3684     1
   3683   3685     1
   3687   3694     1
   3687   3695     1
   3688   3693     1
   3688   3691     1
   3688   3692     1
   3689   3693     1
   3689   3691     1
   3689   3692     1
   3691   3696     1
   3691   3694     1
   3691   3695     1
   3691   3717     1
   3692   3696     1
   3692   3694     1
   3692   3695     1
   3692   3717     1
   3693   3698     1
   3693   3699     1
   3693   3708     1
   3693   3709     1
   3694   3697     1
   3694   3707     1
   3695   3697     1
   3695   3707     1
   3696   3701     1
   3696   3702     1
   3696   3711     1
   3696   3712     1
   3697   3708     1
   3697   3709     1
   3698   3703     1
   3698   3701     1
   3698   3702     1
   3698   3707     1
   3699   3703     1
   3699   3701     1
   3699   3702     1
   3699   3707     1
   3700   3706     1
   3701   3704     1
   3701   3705     1
   3702   3704     1
   3702   3705     1
   3704   3706     1
   3708   3713     1
   3708   3711     1
   3708   3712     1
   3709   3713     1
   3709   3711     1
   3709   3712     1
   3710   3716     1
   3711   3714     1
   3711   3715     1
   3712   3714     1
   3712   3715     1
   3714   3716     1
   3718   3725     1
   3718   3726     1
   3719   3724     1
   3719   3722     1
   3719   3723     1
   3720   3724     1
   3720   3722     1
   3720   3723     1
   3722   3748     1
   3722   3727     1
   3722   3725     1
   3722   3726     1
   3723   3748     1
   3723   3727     1
   3723   3725     1
   3723   3726     1
   3724   3729     1
   3724   3730     1
   3724   3739     1
   3724   3740     1
   3725   3728     1
   3725   3738     1
   3726   3728     1
   3726   3738     1
   3727   3732     1
   3727   3733     1
   3727   3742     1
   3727   3743     1
   3728   3739     1
   3728   3740     1
   3729   3738     1
   3729   3734     1
   3729   3732     1
   3729   3733     1
   3730   3738     1
   3730   3734     1
   3730   3732     1
   3730   3733     1
   3731   3737     1
   3732   3735     1
   3732   3736     1
   3733   3735     1
   3733   3736     1
   3735   3737     1
   3739   3744     1
   3739   3742     1
   3739   3743     1
   3740   3744     1
   3740   3742     1
   3740   3743     1
   3741   3747     1
   3742   3745     1
   3742   3746     1
   3743   3745     1
   3743   3746     1
   3745   3747     1
   3749   3756     1
   3749   3757     1
   3750   3755     1
   3750   3753     1
   3750   3754     1
   3751   3755     1
   3751   3753     1
   3751   3754     1
   3753   3758     1
   3753   3756     1
   3753   3757     1
   3753   3779     1
   3754   3758     1
   3754   3756     1
   3754   3757     1
   3754   3779     1
   3755   3760     1
   3755   3761     1
   3755   3770     1
   3755   3771     1
   3756   3759     1
   3756   3769     1
   3757   3759     1
   3757   3769     1
   3758   3763     1
   3758   3764     1
   3758   3773     1
   3758   3774     1
   3759   3770     1
   3759   3771     1
   3760   3765     1
   3760   3763     1
   3760   3764     1
   3760   3769     1
   3761   3765     1
   3761   3763     1
   3761   3764     1
   3761   3769     1
   3762   3768     1
   3763   3766     1
   3763   3767     1
   3764   3766     1
   3764   3767     1
   3766   3768     1
   3770   3775     1
   3770   3773     1
   3770   3774     1
   3771   3775     1
   3771   3773     1
   3771   3774     1
   3772   3778     1
   3773   3776     1
   3773   3777     1
   3774   3776     1
   3774   3777     1
   3776   3778     1
   3780   3787     1
   3780   3788     1
   3781   3786     1
   3781   3784     1
   3781   3785     1
   3782   3786     1
   3782   3784     1
   3782   3785     1
   3784   3810     1
   3784   3789     1
   3784   3787     1
   3784   3788     1
   3785   3810     1
   3785   3789     1
   3785   3787     1
   3785   3788     1
   3786   3791     1
   3786   3792     1
   3786   3801     1
   3786   3802     1
   3787   3790     1
   3787   3800     1
   3788   3790     1
   3788   3800     1
   3789   3794     1
   3789   3795     1
   3789   3804     1
   3789   3805     1
   3790   3801     1
   3790   3802     1
   3791   3800     1
   3791   3796     1
   3791   3794     1
   3791   3795     1
   3792   3800     1
   3792   3796     1
   3792   3794     1
   3792   3795     1
   3793   3799     1
   3794   3797     1
   3794   3798     1
   3795   3797     1
   3795   3798     1
   3797   3799     1
   3801   3806     1
   3801   3804     1
   3801   3805     1
   3802   3806     1
   3802   3804     1
   3802   3805     1
   3803   3809     1
   3804   3807     1
   3804   3808     1
   3805   3807     1
   3805   3808     1
   3807   3809     1
   3811   3818     1
   3811   3819     1
   3812   3817     1
   3812   3815     1
   3812   3816     1
   3813   3817     1
   3813   3815     1
   3813   3816     1
   3815   3820     1
   3815   3818     1
   3815   3819     1
   3815   3841     1
   3816   3820     1
   3816   3818     1
   3816   3819     1
   3816   3841     1
   3817   3822     1
   3817   3823     1
   3817   3832     1
   3817   3833     1
   3818   3821     1
   3818   3831     1
   3819   3821     1
   3819   3831     1
   3820   3825     1
   3820   3826     1
   3820   3835     1
   3820   3836     1
   3821   3832     1
   3821   3833     1
   3822   3827     1
   3822   3825     1
   3822   3826     1
   3822   3831     1
   3823   3827     1
   3823   3825     1
   3823   3826     1
   3823   3831     1
   3824   3830     1
   3825   3828     1
   3825   3829     1
   3826   3828     1
   3826   3829     1
   3828   3830     1
   3832   3837     1
   3832   3835     1
   3832   3836     1
   3833   3837     1
   3833   3835     1
   3833   3836     1
   3834   3840     1
   3835   3838     1
   3835   3839     1
   3836   3838     1
   3836   3839     1
   3838   3840     1
   3842   3849     1
   3842   3850     1
   3843   3848     1
   3843   3846     1
   3843   3847     1
   3844   3848     1
   3844   3846     1
   3844   3847     1
   3846   3872     1
   3846   3851     1
   3846   3849     1
   3846   3850     1
   3847   3872     1
   3847   3851     1
   3847   3849     1
   3847   3850     1
   3848   3853     1
   3848   3854     1
   3848   3863     1
   3848   3864     1
   3849   3852     1
   3849   3862     1
   3850   3852     1
   3850   3862     1
   3851   3856     1
   3851   3857     1
   3851   3866     1
   3851   3867     1
   3852   3863     1
   3852   3864     1
   3853   3862     1
   3853   3858     1
   3853   3856     1
   3853   3857     1
   3854   3862     1
   3854   3858     1
   3854   3856     1
   3854   3857     1
   3855   3861     1
   3856   3859     1
   3856   3860     1
   3857   3859     1
   3857   3860     1
   3859   3861     1
   3863   3868     1
   3863   3866     1
   3863   3867     1
   3864   3868     1
   3864   3866     1
   3864   3867     1
   3865   3871     1
   3866   3869     1
   3866   3870     1
   3867   3869     1
   3867   3870     1
   3869   3871     1
   3873   3880     1
   3873   3881     1
   3874   3879     1
   3874   3877     1
   3874   3878     1
   3875   3879     1
   3875   3877     1
   3875   3878     1
   3877   3882     1
   3877   3880     1
   3877   3881     1
   3877   3903     1
   3878   3882     1
   3878   3880     1
   3878   3881     1
   3878   3903     1
   3879   3884     1
   3879   3885     1
   3879   3894     1
   3879   3895     1
   3880   3883     1
   3880   3893     1
   3881   3883     1
   3881   3893     1
   3882   3887     1
   3882   3888     1
   3882   3897     1
   3882   3898     1
   3883   3894     1
   3883   3895     1
   3884   3889     1
   3884   3887     1
   3884   3888     1
   3884   3893     1
   3885   3889     1
   3885   3887     1
   3885   3888     1
   3885   3893     1
   3886   3892     1
   3887   3890     1
   3887   3891     1
   3888   3890     1
   3888   3891     1
   3890   3892     1
   3894   3899     1
   3894   3897     1
   3894   3898     1
   3895   3899     1
   3895   3897     1
   3895   3898     1
   3896   3902     1
   3897   3900     1
   3897   3901     1
   3898   3900     1
   3898   3901     1
   3900   3902     1
   3904   3911     1
   3904   3912     1
   3905   3910     1
   3905   3908     1
   3905   3909     1
   3906   3910     1
   3906   3908     1
   3906   3909     1
   3908   3934     1
   3908   3913     1
   3908   3911     1
   3908   3912     1
   3909   3934     1
   3909   3913     1
   3909   3911     1
   3909   3912     1
   3910   3915     1
   3910   3916     1
   3910   3925     1
   3910   3926     1
   3911   3914     1
   3911   3924     1
   3912   3914     1
   3912   3924     1
   3913   3918     1
   3913   3919     1
   3913   3928     1
   3913   3929     1
   3914   3925     1
   3914   3926     1
   3915   3924     1
   3915   3920     1
   3915   3918     1
   3915   3919     1
   3916   3924     1
   3916   3920     1
   3916   3918     1
   3916   3919     1
   3917   3923     1
   3918   3921     1
   3918   3922     1
   3919   3921     1
   3919   3922     1
   3921   3923     1
   3925   3930     1
   3925   3928     1
   3925   3929     1
   3926   3930     1
   3926   3928     1
   3926   3929     1
   3927   3933     1
   3928   3931     1
   3928   3932     1
   3929   3931     1
   3929   3932     1
   3931   3933     1
   3935   3942     1
   3935   3943     1
   3936   3941     1
   3936   3939     1
   3936   3940     1
   3937   3941     1
   3937   3939     1
   3937   3940     1
   3939   3944     1
   3939   3942     1
   3939   3943     1
   3939   3965     1
   3940   3944     1
   3940   3942     1
   3940   3943     1
   3940   3965     1
   3941   3946     1
   3941   3947     1
   3941   3956     1
   3941   3957     1
   3942   3945     1
   3942   3955     1
   3943   3945     1
   3943   3955     1
   3944   3949     1
   3944   3950     1
   3944   3959     1
   3944   3960     1
   3945   3956     1
   3945   3957     1
   3946   3951     1
   3946   3949     1
   3946   3950     1
   3946   3955     1
   3947   3951     1
   3947   3949     1
   3947   3950     1
   3947   3955     1
   3948   3954     1
   3949   3952     1
   3949   3953     1
   3950   3952     1
   3950   3953     1
   3952   3954     1
   3956   3961     1
   3956   3959     1
   3956   3960     1
   3957   3961     1
   3957   3959     1
   3957   3960     1
   3958   3964     1
   3959   3962     1
   3959   3963     1
   3960   3962     1
   3960   3963     1
   3962   3964     1
   3966   3973     1
   3966   3974     1
   3967   3972     1
   3967   3970     1
   3967   3971     1
   3968   3972     1
   3968   3970     1
   3968   3971     1
   3970   3996     1
   3970   3975     1
   3970   3973     1
   3970   3974     1
   3971   3996     1
   3971   3975     1
   3971   3973     1
   3971   3974     1
   3972   3977     1
   3972   3978     1
   3972   3987     1
   3972   3988     1
   3973   3976     1
   3973   3986     1
   3974   3976     1
   3974   3986     1
   3975   3980     1
   3975   3981     1
   3975   3990     1
   3975   3991     1
   3976   3987     1
   3976   3988     1
   3977   3986     1
   3977   3982     1
   3977   3980     1
   3977   3981     1
   3978   3986     1
   3978   3982     1
   3978   3980     1
   3978   3981     1
   3979   3985     1
   3980   3983     1
   3980   3984     1
   3981   3983     1
   3981   3984     1
   3983   3985     1
   3987   3992     1
   3987   3990     1
   3987   3991     1
   3988   3992     1
   3988   3990     1
   3988   3991     1
   3989   3995     1
   3990   3993     1
   3990   3994     1
   3991   3993     1
   3991   3994     1
   3993   3995     1
   3997   4004     1
   3997   4005     1
   3998   4003     1
   3998   4001     1
   3998   4002     1
   3999   4003     1
   3999   4001     1
   3999   4002     1
   4001   4006     1
   4001   4004     1
   4001   4005     1
   4001   4027     1
   4002   4006     1
   4002   4004     1
   4002   4005     1
   4002   4027     1
   4003   4008     1
   4003   4009     1
   4003   4018     1
   4003   4019     1
   4004   4007     1
   4004   4017     1
   4005   4007     1
   4005   4017     1
   4006   4011     1
   4006   4012     1
   4006   4021     1
   4006   4022     1
   4007   4018     1
   4007   4019     1
   4008   4013     1
   4008   4011     1
   4008   4012     1
   4008   4017     1
   4009   4013     1
   4009   4011     1
   4009   4012     1
   4009   4017     1
   4010   4016     1
   4011   4014     1
   4011   4015     1
   4012   4014     1
   4012   4015     1
   4014   4016     1
   4018   4023     1
   4018   4021     1
   4018   4022     1
   4019   4023     1
   4019   4021     1
   4019   4022     1
   4020   4026     1
   4021   4024     1
   4021   4025     1
   4022   4024     1
   4022   4025     1
   4024   4026     1
   4028   4035     1
   4028   4036     1
   4029   4034     1
   4029   4032     1
   4029   4033     1
   4030   4034     1
   4030   4032     1
   4030   4033     1
   4032   4058     1
   4032   4037     1
   4032   4035     1
   4032   4036     1
   4033   4058     1
   4033   4037     1
   4033   4035     1
   4033   4036     1
   4034   4039     1
   4034   4040     1
   4034   4049     1
   4034   4050     1
   4035   4038     1
   4035   4048     1
   4036   4038     1
   4036   4048     1
   4037   4042     1
   4037   4043     1
   4037   4052     1
   4037   4053     1
   4038   4049     1
   4038   4050     1
   4039   4048     1
   4039   4044     1
   4039   4042     1
   4039   4043     1
   4040   4048     1
   4040   4044     1
   4040   4042     1
   4040   4043     1
   4041   4047     1
   4042   4045     1
   4042   4046     1
   4043   4045     1
   4043   4046     1
   4045   4047     1
   4049   4054     1
   4049   4052     1
   4049   4053     1
   4050   4054     1
   4050   4052     1
   4050   4053     1
   4051   4057     1
   4052   4055     1
   4052   4056     1
   4053   4055     1
   4053   4056     1
   4055   4057     1
   4059   4066     1
   4059   4067     1
   4060   4065     1
   4060   4063     1
   4060   4064     1
   4061   4065     1
   4061   4063     1
   4061   4064     1
   4063   4068     1
   4063   4066     1
   4063   4067     1
   4063   4089     1
   4064   4068     1
   4064   4066     1
   4064   4067     1
   4064   4089     1
   4065   4070     1
   4065   4071     1
   4065   4080     1
   4065   4081     1
   4066   4069     1
   4066   4079     1
   4067   4069     1
   4067   4079     1
   4068   4073     1
   4068   4074     1
   4068   4083     1
   4068   4084     1
   4069   4080     1
   4069   4081     1
   4070   4075     1
   4070   4073     1
   4070   4074     1
   4070   4079     1
   4071   4075     1
   4071   4073     1
   4071   4074     1
   4071   4079     1
   4072   4078     1
   4073   4076     1
   4073   4077     1
   4074   4076     1
   4074   4077     1
   4076   4078     1
   4080   4085     1
   4080   4083     1
   4080   4084     1
   4081   4085     1
   4081   4083     1
   4081   4084     1
   4082   4088     1
   4083   4086     1
   4083   4087     1
   4084   4086     1
   4084   4087     1
   4086   4088     1
   4090   4097     1
   4090   4098     1
   4091   4096     1
   4091   4094     1
   4091   4095     1
   4092   4096     1
   4092   4094     1
   4092   4095     1
   4094   4120     1
   4094   4099     1
   4094   4097     1
   4094   4098     1
   4095   4120     1
   4095   4099     1
   4095   4097     1
   4095   4098     1
   4096   4101     1
   4096   4102     1
   4096   4111     1
   4096   4112     1
   4097   4100     1
   4097   4110     1
   4098   4100     1
   4098   4110     1
   4099   4104     1
   4099   4105     1
   4099   4114     1
   4099   4115     1
   4100   4111     1
   4100   4112     1
   4101   4110     1
   4101   4106     1
   4101   4104     1
   4101   4105     1
   4102   4110     1
   4102   4106     1
   4102   4104     1
   4102   4105     1
   4103   4109     1
   4104   4107     1
   4104   4108     1
   4105   4107     1
   4105   4108     1
   4107   4109     1
   4111   4116     1
   4111   4114     1
   4111   4115     1
   4112   4116     1
   4112   4114     1
   4112   4115     1
   4113   4119     1
   4114   4117     1
   4114   4118     1
   4115   4117     1
   4115   4118     1
   4117   4119     1
   4121   4128     1
   4121   4129     1
   4122   4127     1
   4122   4125     1
   4122   4126     1
   4123   4127     1
   4123   4125     1
   4123   4126     1
   4125   4130     1
   4125   4128     1
   4125   4129     1
   4125   4151     1
   4126   4130     1
   4126   4128     1
   4126   4129     1
   4126   4151     1
   4127   4132     1
   4127   4133     1
   4127   4142     1
   4127   4143     1
   4128   4131     1
   4128   4141     1
   4129   4131     1
   4129   4141     1
   4130   4135     1
   4130   4136     1
   4130   4145     1
   4130   4146     1
   4131   4142     1
   4131   4143     1
   4132   4137     1
   4132   4135     1
   4132   4136     1
   4132   4141     1
   4133   4137     1
   4133   4135     1
   4133   4136     1
   4133   4141     1
   4134   4140     1
   4135   4138     1
   4135   4139     1
   4136   4138     1
   4136   4139     1
   4138   4140     1
   4142   4147     1
   4142   4145     1
   4142   4146     1
   4143   4147     1
   4143   4145     1
   4143   4146     1
   4144   4150     1
   4145   4148     1
   4145   4149     1
   4146   4148     1
   4146   4149     1
   4148   4150     1
   4152   4159     1
   4152   4160     1
   4153   4158     1
   4153   4156     1
   4153   4157     1
   4154   4158     1
   4154   4156     1
   4154   4157     1
   4156   4182     1
   4156   4161     1
   4156   4159     1
   4156   4160     1
   4157   4182     1
   4157   4161     1
   4157   4159     1
   4157   4160     1
   4158   4163     1
   4158   4164     1
   4158   4173     1
   4158   4174     1
   4159   4162     1
   4159   4172     1
   4160   4162     1
   4160   4172     1
   4161   4166     1
   4161   4167     1
   4161   4176     1
   4161   4177     1
   4162   4173     1
   4162   4174     1
   4163   4172     1
   4163   4168     1
   4163   4166     1
   4163   4167     1
   4164   4172     1
   4164   4168     1
   4164   4166     1
   4164   4167     1
   4165   4171     1
   4166   4169     1
   4166   4170     1
   4167   4169     1
   4167   4170     1
   4169   4171     1
   4173   4178     1
   4173   4176     1
   4173   4177     1
   4174   4178     1
   4174   4176     1
   4174   4177     1
   4175   4181     1
   4176   4179     1
   4176   4180     1
   4177   4179     1
   4177   4180     1
   4179   4181     1
   4183   4190     1
   4183   4191     1
   4184   4189     1
   4184   4187     1
   4184   4188     1
   4185   4189     1
   4185   4187     1
   4185   4188     1
   4187   4192     1
   4187   4190     1
   4187   4191     1
   4187   4213     1
   4188   4192     1
   4188   4190     1
   4188   4191     1
   4188   4213     1
   4189   4194     1
   4189   4195     1
   4189   4204     1
   4189   4205     1
   4190   4193     1
   4190   4203     1
   4191   4193     1
   4191   4203     1
   4192   4197     1
   4192   4198     1
   4192   4207     1
   4192   4208     1
   4193   4204     1
   4193   4205     1
   4194   4199     1
   4194   4197     1
   4194   4198     1
   4194   4203     1
   4195   4199     1
   4195   4197     1
   4195   4198     1
   4195   4203     1
   4196   4202     1
   4197   4200     1
   4197   4201     1
   4198   4200     1
   4198   4201     1
   4200   4202     1
   4204   4209     1
   4204   4207     1
   4204   4208     1
   4205   4209     1
   4205   4207     1
   4205   4208     1
   4206   4212     1
   4207   4210     1
   4207   4211     1
   4208   4210     1
   4208   4211     1
   4210   4212     1
   4214   4221     1
   4214   4222     1
   4215   4220     1
   4215   4218     1
   4215   4219     1
   4216   4220     1
   4216   4218     1
   4216   4219     1
   4218   4244     1
   4218   4223     1
   4218   4221     1
   4218   4222     1
   4219   4244     1
   4219   4223     1
   4219   4221     1
   4219   4222     1
   4220   4225     1
   4220   4226     1
   4220   4235     1
   4220   4236     1
   4221   4224     1
   4221   4234     1
   4222   4224     1
   4222   4234     1
   4223   4228     1
   4223   4229     1
   4223   4238     1
   4223   4239     1
   4224   4235     1
   4224   4236     1
   4225   4234     1
   4225   4230     1
   4225   4228     1
   4225   4229     1
   4226   4234     1
   4226   4230     1
   4226   4228     1
   4226   4229     1
   4227   4233     1
   4228   4231     1
   4228   4232     1
   4229   4231     1
   4229   4232     1
   4231   4233     1
   4235   4240     1
   4235   4238     1
   4235   4239     1
   4236   4240     1
   4236   4238     1
   4236   4239     1
   4237   4243     1
   4238   4241     1
   4238   4242     1
   4239   4241     1
   4239   4242     1
   4241   4243     1
   4245   4252     1
   4245   4253     1
   4246   4251     1
   4246   4249     1
   4246   4250     1
   4247   4251     1
   4247   4249     1
   4247   4250     1
   4249   4254     1
   4249   4252     1
   4249   4253     1
   4249   4275     1
   4250   4254     1
   4250   4252     1
   4250   4253     1
   4250   4275     1
   4251   4256     1
   4251   4257     1
   4251   4266     1
   4251   4267     1
   4252   4255     1
   4252   4265     1
   4253   4255     1
   4253   4265     1
   4254   4259     1
   4254   4260     1
   4254   4269     1
   4254   4270     1
   4255   4266     1
   4255   4267     1
   4256   4261     1
   4256   4259     1
   4256   4260     1
   4256   4265     1
   4257   4261     1
   4257   4259     1
   4257   4260     1
   4257   4265     1
   4258   4264     1
   4259   4262     1
   4259   4263     1
   4260   4262     1
   4260   4263     1
   4262   4264     1
   4266   4271     1
   4266   4269     1
   4266   4270     1
   4267   4271     1
   4267   4269     1
   4267   4270     1
   4268   4274     1
   4269   4272     1
   4269   4273     1
   4270   4272     1
   4270   4273     1
   4272   4274     1
   4276   4283     1
   4276   4284     1
   4277   4282     1
   4277   4280     1
   4277   4281     1
   4278   4282     1
   4278   4280     1
   4278   4281     1
   4280   4306     1
   4280   4285     1
   4280   4283     1
   4280   4284     1
   4281   4306     1
   4281   4285     1
   4281   4283     1
   4281   4284     1
   4282   4287     1
   4282   4288     1
   4282   4297     1
   4282   4298     1
   4283   4286     1
   4283   4296     1
   4284   4286     1
   4284   4296     1
   4285   4290     1
   4285   4291     1
   4285   4300     1
   4285   4301     1
   4286   4297     1
   4286   4298     1
   4287   4296     1
   4287   4292     1
   4287   4290     1
   4287   4291     1
   4288   4296     1
   4288   4292     1
   4288   4290     1
   4288   4291     1
   4289   4295     1
   4290   4293     1
   4290   4294     1
   4291   4293     1
   4291   4294     1
   4293   4295     1
   4297   4302     1
   4297   4300     1
   4297   4301     1
   4298   4302     1
   4298   4300     1
   4298   4301     1
   4299   4305     1
   4300   4303     1
   4300   4304     1
   4301   4303     1
   4301   4304     1
   4303   4305     1
   4307   4314     1
   4307   4315     1
   4308   4313     1
   4308   4311     1
   4308   4312     1
   4309   4313     1
   4309   4311     1
   4309   4312     1
   4311   4316     1
   4311   4314     1
   4311   4315     1
   4311   4337     1
   4312   4316     1
   4312   4314     1
   4312   4315     1
   4312   4337     1
   4313   4318     1
   4313   4319     1
   4313   4328     1
   4313   4329     1
   4314   4317     1
   4314   4327     1
   4315   4317     1
   4315   4327     1
   4316   4321     1
   4316   4322     1
   4316   4331     1
   4316   4332     1
   4317   4328     1
   4317   4329     1
   4318   4323     1
   4318   4321     1
   4318   4322     1
   4318   4327     1
   4319   4323     1
   4319   4321     1
   4319   4322     1
   4319   4327     1
   4320   4326     1
   4321   4324     1
   4321   4325     1
   4322   4324     1
   4322   4325     1
   4324   4326     1
   4328   4333     1
   4328   4331     1
   4328   4332     1
   4329   4333     1
   4329   4331     1
   4329   4332     1
   4330   4336     1
   4331   4334     1
   4331   4335     1
   4332   4334     1
   4332   4335     1
   4334   4336     1
   4338   4345     1
   4338   4346     1
   4339   4344     1
   4339   4342     1
   4339   4343     1
   4340   4344     1
   4340   4342     1
   4340   4343     1
   4342   4368     1
   4342   4347     1
   4342   4345     1
   4342   4346     1
   4343   4368     1
   4343   4347     1
   4343   4345     1
   4343   4346     1
   4344   4349     1
   4344   4350     1
   4344   4359     1
   4344   4360     1
   4345   4348     1
   4345   4358     1
   4346   4348     1
   4346   4358     1
   4347   4352     1
   4347   4353     1
   4347   4362     1
   4347   4363     1
   4348   4359     1
   4348   4360     1
   4349   4358     1
   4349   4354     1
   4349   4352     1
   4349   4353     1
   4350   4358     1
   4350   4354     1
   4350   4352     1
   4350   4353     1
   4351   4357     1
   4352   4355     1
   4352   4356     1
   4353   4355     1
   4353   4356     1
   4355   4357     1
   4359   4364     1
   4359   4362     1
   4359   4363     1
   4360   4364     1
   4360   4362     1
   4360   4363     1
   4361   4367     1
   4362   4365     1
   4362   4366     1
   4363   4365     1
   4363   4366     1
   4365   4367     1
   4369   4376     1
   4369   4377     1
   4370   4375     1
   4370   4373     1
   4370   4374     1
   4371   4375     1
   4371   4373     1
   4371   4374     1
   4373   4378     1
   4373   4376     1
   4373   4377     1
   4373   4399     1
   4374   4378     1
   4374   4376     1
   4374   4377     1
   4374   4399     1
   4375   4380     1
   4375   4381     1
   4375   4390     1
   4375   4391     1
   4376   4379     1
   4376   4389     1
   4377   4379     1
   4377   4389     1
   4378   4383     1
   4378   4384     1
   4378   4393     1
   4378   4394     1
   4379   4390     1
   4379   4391     1
   4380   4385     1
   4380   4383     1
   4380   4384     1
   4380   4389     1
   4381   4385     1
   4381   4383     1
   4381   4384     1
   4381   4389     1
   4382   4388     1
   4383   4386     1
   4383   4387     1
   4384   4386     1
   4384   4387     1
   4386   4388     1
   4390   4395     1
   4390   4393     1
   4390   4394     1
   4391   4395     1
   4391   4393     1
   4391   4394     1
   4392   4398     1
   4393   4396     1
   4393   4397     1
   4394   4396     1
   4394   4397     1
   4396   4398     1
   4400   4407     1
   4400   4408     1
   4401   4406     1
   4401   4404     1
   4401   4405     1
   4402   4406     1
   4402   4404     1
   4402   4405     1
   4404   4430     1
   4404   4409     1
   4404   4407     1
   4404   4408     1
   4405   4430     1
   4405   4409     1
   4405   4407     1
   4405   4408     1
   4406   4411     1
   4406   4412     1
   4406   4421     1
   4406   4422     1
   4407   4410     1
   4407   4420     1
   4408   4410     1
   4408   4420     1
   4409   4414     1
   4409   4415     1
   4409   4424     1
   4409   4425     1
   4410   4421     1
   4410   4422     1
   4411   4420     1
   4411   4416     1
   4411   4414     1
   4411   4415     1
   4412   4420     1
   4412   4416     1
   4412   4414     1
   4412   4415     1
   4413   4419     1
   4414   4417     1
   4414   4418     1
   4415   4417     1
   4415   4418     1
   4417   4419     1
   4421   4426     1
   4421   4424     1
   4421   4425     1
   4422   4426     1
   4422   4424     1
   4422   4425     1
   4423   4429     1
   4424   4427     1
   4424   4428     1
   4425   4427     1
   4425   4428     1
   4427   4429     1
   4431   4438     1
   4431   4439     1
   4432   4437     1
   4432   4435     1
   4432   4436     1
   4433   4437     1
   4433   4435     1
   4433   4436     1
   4435   4440     1
   4435   4438     1
   4435   4439     1
   4435   4461     1
   4436   4440     1
   4436   4438     1
   4436   4439     1
   4436   4461     1
   4437   4442     1
   4437   4443     1
   4437   4452     1
   4437   4453     1
   4438   4441     1
   4438   4451     1
   4439   4441     1
   4439   4451     1
   4440   4445     1
   4440   4446     1
   4440   4455     1
   4440   4456     1
   4441   4452     1
   4441   4453     1
   4442   4447     1
   4442   4445     1
   4442   4446     1
   4442   4451     1
   4443   4447     1
   4443   4445     1
   4443   4446     1
   4443   4451     1
   4444   4450     1
   4445   4448     1
   4445   4449     1
   4446   4448     1
   4446   4449     1
   4448   4450     1
   4452   4457     1
   4452   4455     1
   4452   4456     1
   4453   4457     1
   4453   4455     1
   4453   4456     1
   4454   4460     1
   4455   4458     1
   4455   4459     1
   4456   4458     1
   4456   4459     1
   4458   4460     1
   4462   4469     1
   4462   4470     1
   4463   4468     1
   4463   4466     1
   4463   4467     1
   4464   4468     1
   4464   4466     1
   4464   4467     1
   4466   4492     1
   4466   4471     1
   4466   4469     1
   4466   4470     1
   4467   4492     1
   4467   4471     1
   4467   4469     1
   4467   4470     1
   4468   4473     1
   4468   4474     1
   4468   4483     1
   4468   4484     1
   4469   4472     1
   4469   4482     1
   4470   4472     1
   4470   4482     1
   4471   4476     1
   4471   4477     1
   4471   4486     1
   4471   4487     1
   4472   4483     1
   4472   4484     1
   4473   4482     1
   4473   4478     1
   4473   4476     1
   4473   4477     1
   4474   4482     1
   4474   4478     1
   4474   4476     1
   4474   4477     1
   4475   4481     1
   4476   4479     1
   4476   4480     1
   4477   4479     1
   4477   4480     1
   4479   4481     1
   4483   4488     1
   4483   4486     1
   4483   4487     1
   4484   4488     1
   4484   4486     1
   4484   4487     1
   4485   4491     1
   4486   4489     1
   4486   4490     1
   4487   4489     1
   4487   4490     1
   4489   4491     1
   4493   4500     1
   4493   4501     1
   4494   4499     1
   4494   4497     1
   4494   4498     1
   4495   4499     1
   4495   4497     1
   4495   4498     1
   4497   4502     1
   4497   4500     1
   4497   4501     1
   4497   4523     1
   4498   4502     1
   4498   4500     1
   4498   4501     1
   4498   4523     1
   4499   4504     1
   4499   4505     1
   4499   4514     1
   4499   4515     1
   4500   4503     1
   4500   4513     1
   4501   4503     1
   4501   4513     1
   4502   4507     1
   4502   4508     1
   4502   4517     1
   4502   4518     1
   4503   4514     1
   4503   4515     1
   4504   4509     1
   4504   4507     1
   4504   4508     1
   4504   4513     1
   4505   4509     1
   4505   4507     1
   4505   4508     1
   4505   4513     1
   4506   4512     1
   4507   4510     1
   4507   4511     1
   4508   4510     1
   4508   4511     1
   4510   4512     1
   4514   4519     1
   4514   4517     1
   4514   4518     1
   4515   4519     1
   4515   4517     1
   4515   4518     1
   4516   4522     1
   4517   4520     1
   4517   4521     1
   4518   4520     1
   4518   4521     1
   4520   4522     1
   4524   4531     1
   4524   4532     1
   4525   4530     1
   4525   4528     1
   4525   4529     1
   4526   4530     1
   4526   4528     1
   4526   4529     1
   4528   4554     1
   4528   4533     1
   4528   4531     1
   4528   4532     1
   4529   4554     1
   4529   4533     1
   4529   4531     1
   4529   4532     1
   4530   4535     1
   4530   4536     1
   4530   4545     1
   4530   4546     1
   4531   4534     1
   4531   4544     1
   4532   4534     1
   4532   4544     1
   4533   4538     1
   4533   4539     1
   4533   4548     1
   4533   4549     1
   4534   4545     1
   4534   4546     1
   4535   4544     1
   4535   4540     1
   4535   4538     1
   4535   4539     1
   4536   4544     1
   4536   4540     1
   4536   4538     1
   4536   4539     1
   4537   4543     1
   4538   4541     1
   4538   4542     1
   4539   4541     1
   4539   4542     1
   4541   4543     1
   4545   4550     1
   4545   4548     1
   4545   4549     1
   4546   4550     1
   4546   4548     1
   4546   4549     1
   4547   4553     1
   4548   4551     1
   4548   4552     1
   4549   4551     1
   4549   4552     1
   4551   4553     1
   4555   4562     1
   4555   4563     1
   4556   4561     1
   4556   4559     1
   4556   4560     1
   4557   4561     1
   4557   4559     1
   4557   4560     1
   4559   4564     1
   4559   4562     1
   4559   4563     1
   4559   4585     1
   4560   4564     1
   4560   4562     1
   4560   4563     1
   4560   4585     1
   4561   4566     1
   4561   4567     1
   4561   4576     1
   4561   4577     1
   4562   4565     1
   4562   4575     1
   4563   4565     1
   4563   4575     1
   4564   4569     1
   4564   4570     1
   4564   4579     1
   4564   4580     1
   4565   4576     1
   4565   4577     1
   4566   4571     1
   4566   4569     1
   4566   4570     1
   4566   4575     1
   4567   4571     1
   4567   4569     1
   4567   4570     1
   4567   4575     1
   4568   4574     1
   4569   4572     1
   4569   4573     1
   4570   4572     1
   4570   4573     1
   4572   4574     1
   4576   4581     1
   4576   4579     1
   4576   4580     1
   4577   4581     1
   4577   4579     1
   4577   4580     1
   4578   4584     1
   4579   4582     1
   4579   4583     1
   4580   4582     1
   4580   4583     1
   4582   4584     1
   4586   4593     1
   4586   4594     1
   4587   4592     1
   4587   4590     1
   4587   4591     1
   4588   4592     1
   4588   4590     1
   4588   4591     1
   4590   4616     1
   4590   4595     1
   4590   4593     1
   4590   4594     1
   4591   4616     1
   4591   4595     1
   4591   4593     1
   4591   4594     1
   4592   4597     1
   4592   4598     1
   4592   4607     1
   4592   4608     1
   4593   4596     1
   4593   4606     1
   4594   4596     1
   4594   4606     1
   4595   4600     1
   4595   4601     1
   4595   4610     1
   4595   4611     1
   4596   4607     1
   4596   4608     1
   4597   4606     1
   4597   4602     1
   4597   4600     1
   4597   4601     1
   4598   4606     1
   4598   4602     1
   4598   4600     1
   4598   4601     1
   4599   4605     1
   4600   4603     1
   4600   4604     1
   4601   4603     1
   4601   4604     1
   4603   4605     1
   4607   4612     1
   4607   4610     1
   4607   4611     1
   4608   4612     1
   4608   4610     1
   4608   4611     1
   4609   4615     1
   4610   4613     1
   4610   4614     1
   4611   4613     1
   4611   4614     1
   4613   4615     1
   4617   4624     1
   4617   4625     1
   4618   4623     1
   4618   4621     1
   4618   4622     1
   4619   4623     1
   4619   4621     1
   4619   4622     1
   4621   4626     1
   4621   4624     1
   4621   4625     1
   4621   4647     1
   4622   4626     1
   4622   4624     1
   4622   4625     1
   4622   4647     1
   4623   4628     1
   4623   4629     1
   4623   4638     1
   4623   4639     1
   4624   4627     1
   4624   4637     1
   4625   4627     1
   4625   4637     1
   4626   4631     1
   4626   4632     1
   4626   4641     1
   4626   4642     1
   4627   4638     1
   4627   4639     1
   4628   4633     1
   4628   4631     1
   4628   4632     1
   4628   4637     1
   4629   4633     1
   4629   4631     1
   4629   4632     1
   4629   4637     1
   4630   4636     1
   4631   4634     1
   4631   4635     1
   4632   4634     1
   4632   4635     1
   4634   4636     1
   4638   4643     1
   4638   4641     1
   4638   4642     1
   4639   4643     1
   4639   4641     1
   4639   4642     1
   4640   4646     1
   4641   4644     1
   4641   4645     1
   4642   4644     1
   4642   4645     1
   4644   4646     1
   4648   4655     1
   4648   4656     1
   4649   4654     1
   4649   4652     1
   4649   4653     1
   4650   4654     1
   4650   4652     1
   4650   4653     1
   4652   4678     1
   4652   4657     1
   4652   4655     1
   4652   4656     1
   4653   4678     1
   4653   4657     1
   4653   4655     1
   4653   4656     1
   4654   4659     1
   4654   4660     1
   4654   4669     1
   4654   4670     1
   4655   4658     1
   4655   4668     1
   4656   4658     1
   4656   4668     1
   4657   4662     1
   4657   4663     1
   4657   4672     1
   4657   4673     1
   4658   4669     1
   4658   4670     1
   4659   4668     1
   4659   4664     1
   4659   4662     1
   4659   4663     1
   4660   4668     1
   4660   4664     1
   4660   4662     1
   4660   4663     1
   4661   4667     1
   4662   4665     1
   4662   4666     1
   4663   4665     1
   4663   4666     1
   4665   4667     1
   4669   4674     1
   4669   4672     1
   4669   4673     1
   4670   4674     1
   4670   4672     1
   4670   4673     1
   4671   4677     1
   4672   4675     1
   4672   4676     1
   4673   4675     1
   4673   4676     1
   4675   4677     1
   4679   4686     1
   4679   4687     1
   4680   4685     1
   4680   4683     1
   4680   4684     1
   4681   4685     1
   4681   4683     1
   4681   4684     1
   4683   4688     1
   4683   4686     1
   4683   4687     1
   4683   4709     1
   4684   4688     1
   4684   4686     1
   4684   4687     1
   4684   4709     1
   4685   4690     1
   4685   4691     1
   4685   4700     1
   4685   4701     1
   4686   4689     1
   4686   4699     1
   4687   4689     1
   4687   4699     1
   4688   4693     1
   4688   4694     1
   4688   4703     1
   4688   4704     1
   4689   4700     1
   4689   4701     1
   4690   4695     1
   4690   4693     1
   4690   4694     1
   4690   4699     1
   4691   4695     1
   4691   4693     1
   4691   4694     1
   4691   4699     1
   4692   4698     1
   4693   4696     1
   4693   4697     1
   4694   4696     1
   4694   4697     1
   4696   4698     1
   4700   4705     1
   4700   4703     1
   4700   4704     1
   4701   4705     1
   4701   4703     1
   4701   4704     1
   4702   4708     1
   4703   4706     1
   4703   4707     1
   4704   4706     1
   4704   4707     1
   4706   4708     1
   4710   4717     1
   4710   4718     1
   4711   4716     1
   4711   4714     1
   4711   4715     1
   4712   4716     1
   4712   4714     1
   4712   4715     1
   4714   4740     1
   4714   4719     1
   4714   4717     1
   4714   4718     1
   4715   4740     1
   4715   4719     1
   4715   4717     1
   4715   4718     1
   4716   4721     1
   4716   4722     1
   4716   4731     1
   4716   4732     1
   4717   4720     1
   4717   4730     1
   4718   4720     1
   4718   4730     1
   4719   4724     1
   4719   4725     1
   4719   4734     1
   4719   4735     1
   4720   4731     1
   4720   4732     1
   4721   4730     1
   4721   4726     1
   4721   4724     1
   4721   4725     1
   4722   4730     1
   4722   4726     1
   4722   4724     1
   4722   4725     1
   4723   4729     1
   4724   4727     1
   4724   4728     1
   4725   4727     1
   4725   4728     1
   4727   4729     1
   4731   4736     1
   4731   4734     1
   4731   4735     1
   4732   4736     1
   4732   4734     1
   4732   4735     1
   4733   4739     1
   4734   4737     1
   4734   4738     1
   4735   4737     1
   4735   4738     1
   4737   4739     1
   4741   4748     1
   4741   4749     1
   4742   4747     1
   4742   4745     1
   4742   4746     1
   4743   4747     1
   4743   4745     1
   4743   4746     1
   4745   4750     1
   4745   4748     1
   4745   4749     1
   4745   4771     1
   4746   4750     1
   4746   4748     1
   4746   4749     1
   4746   4771     1
   4747   4752     1
   4747   4753     1
   4747   4762     1
   4747   4763     1
   4748   4751     1
   4748   4761     1
   4749   4751     1
   4749   4761     1
   4750   4755     1
   4750   4756     1
   4750   4765     1
   4750   4766     1
   4751   4762     1
   4751   4763     1
   4752   4757     1
   4752   4755     1
   4752   4756     1
   4752   4761     1
   4753   4757     1
   4753   4755     1
   4753   4756     1
   4753   4761     1
   4754   4760     1
   4755   4758     1
   4755   4759     1
   4756   4758     1
   4756   4759     1
   4758   4760     1
   4762   4767     1
   4762   4765     1
   4762   4766     1
   4763   4767     1
   4763   4765     1
   4763   4766     1
   4764   4770     1
   4765   4768     1
   4765   4769     1
   4766   4768     1
   4766   4769     1
   4768   4770     1
   4772   4779     1
   4772   4780     1
   4773   4778     1
   4773   4776     1
   4773   4777     1
   4774   4778     1
   4774   4776     1
   4774   4777     1
   4776   4802     1
   4776   4781     1
   4776   4779     1
   4776   4780     1
   4777   4802     1
   4777   4781     1
   4777   4779     1
   4777   4780     1
   4778   4783     1
   4778   4784     1
   4778   4793     1
   4778   4794     1
   4779   4782     1
   4779   4792     1
   4780   4782     1
   4780   4792     1
   4781   4786     1
   4781   4787     1
   4781   4796     1
   4781   4797     1
   4782   4793     1
   4782   4794     1
   4783   4792     1
   4783   4788     1
   4783   4786     1
   4783   4787     1
   4784   4792     1
   4784   4788     1
   4784   4786     1
   4784   4787     1
   4785   4791     1
   4786   4789     1
   4786   4790     1
   4787   4789     1
   4787   4790     1
   4789   4791     1
   4793   4798     1
   4793   4796     1
   4793   4797     1
   4794   4798     1
   4794   4796     1
   4794   4797     1
   4795   4801     1
   4796   4799     1
   4796   4800     1
   4797   4799     1
   4797   4800     1
   4799   4801     1
   4803   4810     1
   4803   4811     1
   4804   4809     1
   4804   4807     1
   4804   4808     1
   4805   4809     1
   4805   4807     1
   4805   4808     1
   4807   4812     1
   4807   4810     1
   4807   4811     1
   4807   4833     1
   4808   4812     1
   4808   4810     1
   4808   4811     1
   4808   4833     1
   4809   4814     1
   4809   4815     1
   4809   4824     1
   4809   4825     1
   4810   4813     1
   4810   4823     1
   4811   4813     1
   4811   4823     1
   4812   4817     1
   4812   4818     1
   4812   4827     1
   4812   4828     1
   4813   4824     1
   4813   4825     1
   4814   4819     1
   4814   4817     1
   4814   4818     1
   4814   4823     1
   4815   4819     1
   4815   4817     1
   4815   4818     1
   4815   4823     1
   4816   4822     1
   4817   4820     1
   4817   4821     1
   4818   4820     1
   4818   4821     1
   4820   4822     1
   4824   4829     1
   4824   4827     1
   4824   4828     1
   4825   4829     1
   4825   4827     1
   4825   4828     1
   4826   4832     1
   4827   4830     1
   4827   4831     1
   4828   4830     1
   4828   4831     1
   4830   4832     1
   4834   4841     1
   4834   4842     1
   4835   4840     1
   4835   4838     1
   4835   4839     1
   4836   4840     1
   4836   4838     1
   4836   4839     1
   4838   4864     1
   4838   4843     1
   4838   4841     1
   4838   4842     1
   4839   4864     1
   4839   4843     1
   4839   4841     1
   4839   4842     1
   4840   4845     1
   4840   4846     1
   4840   4855     1
   4840   4856     1
   4841   4844     1
   4841   4854     1
   4842   4844     1
   4842   4854     1
   4843   4848     1
   4843   4849     1
   4843   4858     1
   4843   4859     1
   4844   4855     1
   4844   4856     1
   4845   4854     1
   4845   4850     1
   4845   4848     1
   4845   4849     1
   4846   4854     1
   4846   4850     1
   4846   4848     1
   4846   4849     1
   4847   4853     1
   4848   4851     1
   4848   4852     1
   4849   4851     1
   4849   4852     1
   4851   4853     1
   4855   4860     1
   4855   4858     1
   4855   4859     1
   4856   4860     1
   4856   4858     1
   4856   4859     1
   4857   4863     1
   4858   4861     1
   4858   4862     1
   4859   4861     1
   4859   4862     1
   4861   4863     1
   4865   4872     1
   4865   4873     1
   4866   4871     1
   4866   4869     1
   4866   4870     1
   4867   4871     1
   4867   4869     1
   4867   4870     1
   4869   4874     1
   4869   4872     1
   4869   4873     1
   4869   4895     1
   4870   4874     1
   4870   4872     1
   4870   4873     1
   4870   4895     1
   4871   4876     1
   4871   4877     1
   4871   4886     1
   4871   4887     1
   4872   4875     1
   4872   4885     1
   4873   4875     1
   4873   4885     1
   4874   4879     1
   4874   4880     1
   4874   4889     1
   4874   4890     1
   4875   4886     1
   4875   4887     1
   4876   4881     1
   4876   4879     1
   4876   4880     1
   4876   4885     1
   4877   4881     1
   4877   4879     1
   4877   4880     1
   4877   4885     1
   4878   4884     1
   4879   4882     1
   4879   4883     1
   4880   4882     1
   4880   4883     1
   4882   4884     1
   4886   4891     1
   4886   4889     1
   4886   4890     1
   4887   4891     1
   4887   4889     1
   4887   4890     1
   4888   4894     1
   4889   4892     1
   4889   4893     1
   4890   4892     1
   4890   4893     1
   4892   4894     1
   4896   4903     1
   4896   4904     1
   4897   4902     1
   4897   4900     1
   4897   4901     1
   4898   4902     1
   4898   4900     1
   4898   4901     1
   4900   4926     1
   4900   4905     1
   4900   4903     1
   4900   4904     1
   4901   4926     1
   4901   4905     1
   4901   4903     1
   4901   4904     1
   4902   4907     1
   4902   4908     1
   4902   4917     1
   4902   4918     1
   4903   4906     1
   4903   4916     1
   4904   4906     1
   4904   4916     1
   4905   4910     1
   4905   4911     1
   4905   4920     1
   4905   4921     1
   4906   4917     1
   4906   4918     1
   4907   4916     1
   4907   4912     1
   4907   4910     1
   4907   4911     1
   4908   4916     1
   4908   4912     1
   4908   4910     1
   4908   4911     1
   4909   4915     1
   4910   4913     1
   4910   4914     1
   4911   4913     1
   4911   4914     1
   4913   4915     1
   4917   4922     1
   4917   4920     1
   4917   4921     1
   4918   4922     1
   4918   4920     1
   4918   4921     1
   4919   4925     1
   4920   4923     1
   4920   4924     1
   4921   4923     1
   4921   4924     1
   4923   4925     1
   4927   4934     1
   4927   4935     1
   4928   4933     1
   4928   4931     1
   4928   4932     1
   4929   4933     1
   4929   4931     1
   4929   4932     1
   4931   4936     1
   4931   4934     1
   4931   4935     1
   4931   4957     1
   4932   4936     1
   4932   4934     1
   4932   4935     1
   4932   4957     1
   4933   4938     1
   4933   4939     1
   4933   4948     1
   4933   4949     1
   4934   4937     1
   4934   4947     1
   4935   4937     1
   4935   4947     1
   4936   4941     1
   4936   4942     1
   4936   4951     1
   4936   4952     1
   4937   4948     1
   4937   4949     1
   4938   4943     1
   4938   4941     1
   4938   4942     1
   4938   4947     1
   4939   4943     1
   4939   4941     1
   4939   4942     1
   4939   4947     1
   4940   4946     1
   4941   4944     1
   4941   4945     1
   4942   4944     1
   4942   4945     1
   4944   4946     1
   4948   4953     1
   4948   4951     1
   4948   4952     1
   4949   4953     1
   4949   4951     1
   4949   4952     1
   4950   4956     1
   4951   4954     1
   4951   4955     1
   4952   4954     1
   4952   4955     1
   4954   4956     1
   4958   4965     1
   4958   4966     1
   4959   4964     1
   4959   4962     1
   4959   4963     1
   4960   4964     1
   4960   4962     1
   4960   4963     1
   4962   4988     1
   4962   4967     1
   4962   4965     1
   4962   4966     1
   4963   4988     1
   4963   4967     1
   4963   4965     1
   4963   4966     1
   4964   4969     1
   4964   4970     1
   4964   4979     1
   4964   4980     1
   4965   4968     1
   4965   4978     1
   4966   4968     1
   4966   4978     1
   4967   4972     1
   4967   4973     1
   4967   4982     1
   4967   4983     1
   4968   4979     1
   4968   4980     1
   4969   4978     1
   4969   4974     1
   4969   4972     1
   4969   4973     1
   4970   4978     1
   4970   4974     1
   4970   4972     1
   4970   4973     1
   4971   4977     1
   4972   4975     1
   4972   4976     1
   4973   4975     1
   4973   4976     1
   4975   4977     1
   4979   4984     1
   4979   4982     1
   4979   4983     1
   4980   4984     1
   4980   4982     1
   4980   4983     1
   4981   4987     1
   4982   4985     1
   4982   4986     1
   4983   4985     1
   4983   4986     1
   4985   4987     1
   4989   4996     1
   4989   4997     1
   4990   4995     1
   4990   4993     1
   4990   4994     1
   4991   4995     1
   4991   4993     1
   4991   4994     1
   4993   4998     1
   4993   4996     1
   4993   4997     1
   4993   5019     1
   4994   4998     1
   4994   4996     1
   4994   4997     1
   4994   5019     1
   4995   5000     1
   4995   5001     1
   4995   5010     1
   4995   5011     1
   4996   4999     1
   4996   5009     1
   4997   4999     1
   4997   5009     1
   4998   5003     1
   4998   5004     1
   4998   5013     1
   4998   5014     1
   4999   5010     1
   4999   5011     1
   5000   5005     1
   5000   5003     1
   5000   5004     1
   5000   5009     1
   5001   5005     1
   5001   5003     1
   5001   5004     1
   5001   5009     1
   5002   5008     1
   5003   5006     1
   5003   5007     1
   5004   5006     1
   5004   5007     1
   5006   5008     1
   5010   5015     1
   5010   5013     1
   5010   5014     1
   5011   5015     1
   5011   5013     1
   5011   5014     1
   5012   5018     1
   5013   5016     1
   5013   5017     1
   5014   5016     1
   5014   5017     1
   5016   5018     1
   5020   5027     1
   5020   5028     1
   5021   5026     1
   5021   5024     1
   5021   5025     1
   5022   5026     1
   5022   5024     1
   5022   5025     1
   5024   5050     1
   5024   5029     1
   5024   5027     1
   5024   5028     1
   5025   5050     1
   5025   5029     1
   5025   5027     1
   5025   5028     1
   5026   5031     1
   5026   5032     1
   5026   5041     1
   5026   5042     1
   5027   5030     1
   5027   5040     1
   5028   5030     1
   5028   5040     1
   5029   5034     1
   5029   5035     1
   5029   5044     1
   5029   5045     1
   5030   5041     1
   5030   5042     1
   5031   5040     1
   5031   5036     1
   5031   5034     1
   5031   5035     1
   5032   5040     1
   5032   5036     1
   5032   5034     1
   5032   5035     1
   5033   5039     1
   5034   5037     1
   5034   5038     1
   5035   5037     1
   5035   5038     1
   5037   5039     1
   5041   5046     1
   5041   5044     1
   5041   5045     1
   5042   5046     1
   5042   5044     1
   5042   5045     1
   5043   5049     1
   5044   5047     1
   5044   5048     1
   5045   5047     1
   5045   5048     1
   5047   5049     1
   5051   5058     1
   5051   5059     1
   5052   5057     1
   5052   5055     1
   5052   5056     1
   5053   5057     1
   5053   5055     1
   5053   5056     1
   5055   5060     1
   5055   5058     1
   5055   5059     1
   5055   5081     1
   5056   5060     1
   5056   5058     1
   5056   5059     1
   5056   5081     1
   5057   5062     1
   5057   5063     1
   5057   5072     1
   5057   5073     1
   5058   5061     1
   5058   5071     1
   5059   5061     1
   5059   5071     1
   5060   5065     1
   5060   5066     1
   5060   5075     1
   5060   5076     1
   5061   5072     1
   5061   5073     1
   5062   5067     1
   5062   5065     1
   5062   5066     1
   5062   5071     1
   5063   5067     1
   5063   5065     1
   5063   5066     1
   5063   5071     1
   5064   5070     1
   5065   5068     1
   5065   5069     1
   5066   5068     1
   5066   5069     1
   5068   5070     1
   5072   5077     1
   5072   5075     1
   5072   5076     1
   5073   5077     1
   5073   5075     1
   5073   5076     1
   5074   5080     1
   5075   5078     1
   5075   5079     1
   5076   5078     1
   5076   5079     1
   5078   5080     1
   5082   5089     1
   5082   5090     1
   5083   5088     1
   5083   5086     1
   5083   5087     1
   5084   5088     1
   5084   5086     1
   5084   5087     1
   5086   5112     1
   5086   5091     1
   5086   5089     1
   5086   5090     1
   5087   5112     1
   5087   5091     1
   5087   5089     1
   5087   5090     1
   5088   5093     1
   5088   5094     1
   5088   5103     1
   5088   5104     1
   5089   5092     1
   5089   5102     1
   5090   5092     1
   5090   5102     1
   5091   5096     1
   5091   5097     1
   5091   5106     1
   5091   5107     1
   5092   5103     1
   5092   5104     1
   5093   5102     1
   5093   5098     1
   5093   5096     1
   5093   5097     1
   5094   5102     1
   5094   5098     1
   5094   5096     1
   5094   5097     1
   5095   5101     1
   5096   5099     1
   5096   5100     1
   5097   5099     1
   5097   5100     1
   5099   5101     1
   5103   5108     1
   5103   5106     1
   5103   5107     1
   5104   5108     1
   5104   5106     1
   5104   5107     1
   5105   5111     1
   5106   5109     1
   5106   5110     1
   5107   5109     1
   5107   5110     1
   5109   5111     1
   5113   5120     1
   5113   5121     1
   5114   5119     1
   5114   5117     1
   5114   5118     1
   5115   5119     1
   5115   5117     1
   5115   5118     1
   5117   5122     1
   5117   5120     1
   5117   5121     1
   5117   5143     1
   5118   5122     1
   5118   5120     1
   5118   5121     1
   5118   5143     1
   5119   5124     1
   5119   5125     1
   5119   5134     1
   5119   5135     1
   5120   5123     1
   5120   5133     1
   5121   5123     1
   5121   5133     1
   5122   5127     1
   5122   5128     1
   5122   5137     1
   5122   5138     1
   5123   5134     1
   5123   5135     1
   5124   5129     1
   5124   5127     1
   5124   5128     1
   5124   5133     1
   5125   5129     1
   5125   5127     1
   5125   5128     1
   5125   5133     1
   5126   5132     1
   5127   5130     1
   5127   5131     1
   5128   5130     1
   5128   5131     1
   5130   5132     1
   5134   5139     1
   5134   5137     1
   5134   5138     1
   5135   5139     1
   5135   5137     1
   5135   5138     1
   5136   5142     1
   5137   5140     1
   5137   5141     1
   5138   5140     1
   5138   5141     1
   5140   5142     1
   5144   5151     1
   5144   5152     1
   5145   5150     1
   5145   5148     1
   5145   5149     1
   5146   5150     1
   5146   5148     1
   5146   5149     1
   5148   5174     1
   5148   5153     1
   5148   5151     1
   5148   5152     1
   5149   5174     1
   5149   5153     1
   5149   5151     1
   5149   5152     1
   5150   5155     1
   5150   5156     1
   5150   5165     1
   5150   5166     1
   5151   5154     1
   5151   5164     1
   5152   5154     1
   5152   5164     1
   5153   5158     1
   5153   5159     1
   5153   5168     1
   5153   5169     1
   5154   5165     1
   5154   5166     1
   5155   5164     1
   5155   5160     1
   5155   5158     1
   5155   5159     1
   5156   5164     1
   5156   5160     1
   5156   5158     1
   5156   5159     1
   5157   5163     1
   5158   5161     1
   5158   5162     1
   5159   5161     1
   5159   5162     1
   5161   5163     1
   5165   5170     1
   5165   5168     1
   5165   5169     1
   5166   5170     1
   5166   5168     1
   5166   5169     1
   5167   5173     1
   5168   5171     1
   5168   5172     1
   5169   5171     1
   5169   5172     1
   5171   5173     1
   5175   5182     1
   5175   5183     1
   5176   5181     1
   5176   5179     1
   5176   5180     1
   5177   5181     1
   5177   5179     1
   5177   5180     1
   5179   5184     1
   5179   5182     1
   5179   5183     1
   5179   5205     1
   5180   5184     1
   5180   5182     1
   5180   5183     1
   5180   5205     1
   5181   5186     1
   5181   5187     1
   5181   5196     1
   5181   5197     1
   5182   5185     1
   5182   5195     1
   5183   5185     1
   5183   5195     1
   5184   5189     1
   5184   5190     1
   5184   5199     1
   5184   5200     1
   5185   5196     1
   5185   5197     1
   5186   5191     1
   5186   5189     1
   5186   5190     1
   5186   5195     1
   5187   5191     1
   5187   5189     1
   5187   5190     1
   5187   5195     1
   5188   5194     1
   5189   5192     1
   5189   5193     1
   5190   5192     1
   5190   5193     1
   5192   5194     1
   5196   5201     1
   5196   5199     1
   5196   5200     1
   5197   5201     1
   5197   5199     1
   5197   5200     1
   5198   5204     1
   5199   5202     1
   5199   5203     1
   5200   5202     1
   5200   5203     1
   5202   5204     1
   5206   5213     1
   5206   5214     1
   5207   5212     1
   5207   5210     1
   5207   5211     1
   5208   5212     1
   5208   5210     1
   5208   5211     1
   5210   5236     1
   5210   5215     1
   5210   5213     1
   5210   5214     1
   5211   5236     1
   5211   5215     1
   5211   5213     1
   5211   5214     1
   5212   5217     1
   5212   5218     1
   5212   5227     1
   5212   5228     1
   5213   5216     1
   5213   5226     1
   5214   5216     1
   5214   5226     1
   5215   5220     1
   5215   5221     1
   5215   5230     1
   5215   5231     1
   5216   5227     1
   5216   5228     1
   5217   5226     1
   5217   5222     1
   5217   5220     1
   5217   5221     1
   5218   5226     1
   5218   5222     1
   5218   5220     1
   5218   5221     1
   5219   5225     1
   5220   5223     1
   5220   5224     1
   5221   5223     1
   5221   5224     1
   5223   5225     1
   5227   5232     1
   5227   5230     1
   5227   5231     1
   5228   5232     1
   5228   5230     1
   5228   5231     1
   5229   5235     1
   5230   5233     1
   5230   5234     1
   5231   5233     1
   5231   5234     1
   5233   5235     1
   5237   5244     1
   5237   5245     1
   5238   5243     1
   5238   5241     1
   5238   5242     1
   5239   5243     1
   5239   5241     1
   5239   5242     1
   5241   5246     1
   5241   5244     1
   5241   5245     1
   5241   5267     1
   5242   5246     1
   5242   5244     1
   5242   5245     1
   5242   5267     1
   5243   5248     1
   5243   5249     1
   5243   5258     1
   5243   5259     1
   5244   5247     1
   5244   5257     1
   5245   5247     1
   5245   5257     1
   5246   5251     1
   5246   5252     1
   5246   5261     1
   5246   5262     1
   5247   5258     1
   5247   5259     1
   5248   5253     1
   5248   5251     1
   5248   5252     1
   5248   5257     1
   5249   5253     1
   5249   5251     1
   5249   5252     1
   5249   5257     1
   5250   5256     1
   5251   5254     1
   5251   5255     1
   5252   5254     1
   5252   5255     1
   5254   5256     1
   5258   5263     1
   5258   5261     1
   5258   5262     1
   5259   5263     1
   5259   5261     1
   5259   5262     1
   5260   5266     1
   5261   5264     1
   5261   5265     1
   5262   5264     1
   5262   5265     1
   5264   5266     1
   5268   5275     1
   5268   5276     1
   5269   5274     1
   5269   5272     1
   5269   5273     1
   5270   5274     1
   5270   5272     1
   5270   5273     1
   5272   5298     1
   5272   5277     1
   5272   5275     1
   5272   5276     1
   5273   5298     1
   5273   5277     1
   5273   5275     1
   5273   5276     1
   5274   5279     1
   5274   5280     1
   5274   5289     1
   5274   5290     1
   5275   5278     1
   5275   5288     1
   5276   5278     1
   5276   5288     1
   5277   5282     1
   5277   5283     1
   5277   5292     1
   5277   5293     1
   5278   5289     1
   5278   5290     1
   5279   5288     1
   5279   5284     1
   5279   5282     1
   5279   5283     1
   5280   5288     1
   5280   5284     1
   5280   5282     1
   5280   5283     1
   5281   5287     1
   5282   5285     1
   5282   5286     1
   5283   5285     1
   5283   5286     1
   5285   5287     1
   5289   5294     1
   5289   5292     1
   5289   5293     1
   5290   5294     1
   5290   5292     1
   5290   5293     1
   5291   5297     1
   5292   5295     1
   5292   5296     1
   5293   5295     1
   5293   5296     1
   5295   5297     1
   5299   5306     1
   5299   5307     1
   5300   5305     1
   5300   5303     1
   5300   5304     1
   5301   5305     1
   5301   5303     1
   5301   5304     1
   5303   5308     1
   5303   5306     1
   5303   5307     1
   5303   5329     1
   5304   5308     1
   5304   5306     1
   5304   5307     1
   5304   5329     1
   5305   5310     1
   5305   5311     1
   5305   5320     1
   5305   5321     1
   5306   5309     1
   5306   5319     1
   5307   5309     1
   5307   5319     1
   5308   5313     1
   5308   5314     1
   5308   5323     1
   5308   5324     1
   5309   5320     1
   5309   5321     1
   5310   5315     1
   5310   5313     1
   5310   5314     1
   5310   5319     1
   5311   5315     1
   5311   5313     1
   5311   5314     1
   5311   5319     1
   5312   5318     1
   5313   5316     1
   5313   5317     1
   5314   5316     1
   5314   5317     1
   5316   5318     1
   5320   5325     1
   5320   5323     1
   5320   5324     1
   5321   5325     1
   5321   5323     1
   5321   5324     1
   5322   5328     1
   5323   5326     1
   5323   5327     1
   5324   5326     1
   5324   5327     1
   5326   5328     1
   5330   5337     1
   5330   5338     1
   5331   5336     1
   5331   5334     1
   5331   5335     1
   5332   5336     1
   5332   5334     1
   5332   5335     1
   5334   5360     1
   5334   5339     1
   5334   5337     1
   5334   5338     1
   5335   5360     1
   5335   5339     1
   5335   5337     1
   5335   5338     1
   5336   5341     1
   5336   5342     1
   5336   5351     1
   5336   5352     1
   5337   5340     1
   5337   5350     1
   5338   5340     1
   5338   5350     1
   5339   5344     1
   5339   5345     1
   5339   5354     1
   5339   5355     1
   5340   5351     1
   5340   5352     1
   5341   5350     1
   5341   5346     1
   5341   5344     1
   5341   5345     1
   5342   5350     1
   5342   5346     1
   5342   5344     1
   5342   5345     1
   5343   5349     1
   5344   5347     1
   5344   5348     1
   5345   5347     1
   5345   5348     1
   5347   5349     1
   5351   5356     1
   5351   5354     1
   5351   5355     1
   5352   5356     1
   5352   5354     1
   5352   5355     1
   5353   5359     1
   5354   5357     1
   5354   5358     1
   5355   5357     1
   5355   5358     1
   5357   5359     1
   5361   5368     1
   5361   5369     1
   5362   5367     1
   5362   5365     1
   5362   5366     1
   5363   5367     1
   5363   5365     1
   5363   5366     1
   5365   5370     1
   5365   5368     1
   5365   5369     1
   5365   5391     1
   5366   5370     1
   5366   5368     1
   5366   5369     1
   5366   5391     1
   5367   5372     1
   5367   5373     1
   5367   5382     1
   5367   5383     1
   5368   5371     1
   5368   5381     1
   5369   5371     1
   5369   5381     1
   5370   5375     1
   5370   5376     1
   5370   5385     1
   5370   5386     1
   5371   5382     1
   5371   5383     1
   5372   5377     1
   5372   5375     1
   5372   5376     1
   5372   5381     1
   5373   5377     1
   5373   5375     1
   5373   5376     1
   5373   5381     1
   5374   5380     1
   5375   5378     1
   5375   5379     1
   5376   5378     1
   5376   5379     1
   5378   5380     1
   5382   5387     1
   5382   5385     1
   5382   5386     1
   5383   5387     1
   5383   5385     1
   5383   5386     1
   5384   5390     1
   5385   5388     1
   5385   5389     1
   5386   5388     1
   5386   5389     1
   5388   5390     1
   5392   5399     1
   5392   5400     1
   5393   5398     1
   5393   5396     1
   5393   5397     1
   5394   5398     1
   5394   5396     1
   5394   5397     1
   5396   5422     1
   5396   5401     1
   5396   5399     1
   5396   5400     1
   5397   5422     1
   5397   5401     1
   5397   5399     1
   5397   5400     1
   5398   5403     1
   5398   5404     1
   5398   5413     1
   5398   5414     1
   5399   5402     1
   5399   5412     1
   5400   5402     1
   5400   5412     1
   5401   5406     1
   5401   5407     1
   5401   5416     1
   5401   5417     1
   5402   5413     1
   5402   5414     1
   5403   5412     1
   5403   5408     1
   5403   5406     1
   5403   5407     1
   5404   5412     1
   5404   5408     1
   5404   5406     1
   5404   5407     1
   5405   5411     1
   5406   5409     1
   5406   5410     1
   5407   5409     1
   5407   5410     1
   5409   5411     1
   5413   5418     1
   5413   5416     1
   5413   5417     1
   5414   5418     1
   5414   5416     1
   5414   5417     1
   5415   5421     1
   5416   5419     1
   5416   5420     1
   5417   5419     1
   5417   5420     1
   5419   5421     1
   5423   5430     1
   5423   5431     1
   5424   5429     1
   5424   5427     1
   5424   5428     1
   5425   5429     1
   5425   5427     1
   5425   5428     1
   5427   5432     1
   5427   5430     1
   5427   5431     1
   5427   5453     1
   5428   5432     1
   5428   5430     1
   5428   5431     1
   5428   5453     1
   5429   5434     1
   5429   5435     1
   5429   5444     1
   5429   5445     1
   5430   5433     1
   5430   5443     1
   5431   5433     1
   5431   5443     1
   5432   5437     1
   5432   5438     1
   5432   5447     1
   5432   5448     1
   5433   5444     1
   5433   5445     1
   5434   5439     1
   5434   5437     1
   5434   5438     1
   5434   5443     1
   5435   5439     1
   5435   5437     1
   5435   5438     1
   5435   5443     1
   5436   5442     1
   5437   5440     1
   5437   5441     1
   5438   5440     1
   5438   5441     1
   5440   5442     1
   5444   5449     1
   5444   5447     1
   5444   5448     1
   5445   5449     1
   5445   5447     1
   5445   5448     1
   5446   5452     1
   5447   5450     1
   5447   5451     1
   5448   5450     1
   5448   5451     1
   5450   5452     1
   5454   5461     1
   5454   5462     1
   5455   5460     1
   5455   5458     1
   5455   5459     1
   5456   5460     1
   5456   5458     1
   5456   5459     1
   5458   5484     1
   5458   5463     1
   5458   5461     1
   5458   5462     1
   5459   5484     1
   5459   5463     1
   5459   5461     1
   5459   5462     1
   5460   5465     1
   5460   5466     1
   5460   5475     1
   5460   5476     1
   5461   5464     1
   5461   5474     1
   5462   5464     1
   5462   5474     1
   5463   5468     1
   5463   5469     1
   5463   5478     1
   5463   5479     1
   5464   5475     1
   5464   5476     1
   5465   5474     1
   5465   5470     1
   5465   5468     1
   5465   5469     1
   5466   5474     1
   5466   5470     1
   5466   5468     1
   5466   5469     1
   5467   5473     1
   5468   5471     1
   5468   5472     1
   5469   5471     1
   5469   5472     1
   5471   5473     1
   5475   5480     1
   5475   5478     1
   5475   5479     1
   5476   5480     1
   5476   5478     1
   5476   5479     1
   5477   5483     1
   5478   5481     1
   5478   5482     1
   5479   5481     1
   5479   5482     1
   5481   5483     1
   5485   5492     1
   5485   5493     1
   5486   5491     1
   5486   5489     1
   5486   5490     1
   5487   5491     1
   5487   5489     1
   5487   5490     1
   5489   5494     1
   5489   5492     1
   5489   5493     1
   5489   5515     1
   5490   5494     1
   5490   5492     1
   5490   5493     1
   5490   5515     1
   5491   5496     1
   5491   5497     1
   5491   5506     1
   5491   5507     1
   5492   5495     1
   5492   5505     1
   5493   5495     1
   5493   5505     1
   5494   5499     1
   5494   5500     1
   5494   5509     1
   5494   5510     1
   5495   5506     1
   5495   5507     1
   5496   5501     1
   5496   5499     1
   5496   5500     1
   5496   5505     1
   5497   5501     1
   5497   5499     1
   5497   5500     1
   5497   5505     1
   5498   5504     1
   5499   5502     1
   5499   5503     1
   5500   5502     1
   5500   5503     1
   5502   5504     1
   5506   5511     1
   5506   5509     1
   5506   5510     1
   5507   5511     1
   5507   5509     1
   5507   5510     1
   5508   5514     1
   5509   5512     1
   5509   5513     1
   5510   5512     1
   5510   5513     1
   5512   5514     1
   5516   5523     1
   5516   5524     1
   5517   5522     1
   5517   5520     1
   5517   5521     1
   5518   5522     1
   5518   5520     1
   5518   5521     1
   5520   5546     1
   5520   5525     1
   5520   5523     1
   5520   5524     1
   5521   5546     1
   5521   5525     1
   5521   5523     1
   5521   5524     1
   5522   5527     1
   5522   5528     1
   5522   5537     1
   5522   5538     1
   5523   5526     1
   5523   5536     1
   5524   5526     1
   5524   5536     1
   5525   5530     1
   5525   5531     1
   5525   5540     1
   5525   5541     1
   5526   5537     1
   5526   5538     1
   5527   5536     1
   5527   5532     1
   5527   5530     1
   5527   5531     1
   5528   5536     1
   5528   5532     1
   5528   5530     1
   5528   5531     1
   5529   5535     1
   5530   5533     1
   5530   5534     1
   5531   5533     1
   5531   5534     1
   5533   5535     1
   5537   5542     1
   5537   5540     1
   5537   5541     1
   5538   5542     1
   5538   5540     1
   5538   5541     1
   5539   5545     1
   5540   5543     1
   5540   5544     1
   5541   5543     1
   5541   5544     1
   5543   5545     1
   5547   5554     1
   5547   5555     1
   5548   5553     1
   5548   5551     1
   5548   5552     1
   5549   5553     1
   5549   5551     1
   5549   5552     1
   5551   5556     1
   5551   5554     1
   5551   5555     1
   5551   5577     1
   5552   5556     1
   5552   5554     1
   5552   5555     1
   5552   5577     1
   5553   5558     1
   5553   5559     1
   5553   5568     1
   5553   5569     1
   5554   5557     1
   5554   5567     1
   5555   5557     1
   5555   5567     1
   5556   5561     1
   5556   5562     1
   5556   5571     1
   5556   5572     1
   5557   5568     1
   5557   5569     1
   5558   5563     1
   5558   5561     1
   5558   5562     1
   5558   5567     1
   5559   5563     1
   5559   5561     1
   5559   5562     1
   5559   5567     1
   5560   5566     1
   5561   5564     1
   5561   5565     1
   5562   5564     1
   5562   5565     1
   5564   5566     1
   5568   5573     1
   5568   5571     1
   5568   5572     1
   5569   5573     1
   5569   5571     1
   5569   5572     1
   5570   5576     1
   5571   5574     1
   5571   5575     1
   5572   5574     1
   5572   5575     1
   5574   5576     1
   5578   5585     1
   5578   5586     1
   5579   5584     1
   5579   5582     1
   5579   5583     1
   5580   5584     1
   5580   5582     1
   5580   5583     1
   5582   5608     1
   5582   5587     1
   5582   5585     1
   5582   5586     1
   5583   5608     1
   5583   5587     1
   5583   5585     1
   5583   5586     1
   5584   5589     1
   5584   5590     1
   5584   5599     1
   5584   5600     1
   5585   5588     1
   5585   5598     1
   5586   5588     1
   5586   5598     1
   5587   5592     1
   5587   5593     1
   5587   5602     1
   5587   5603     1
   5588   5599     1
   5588   5600     1
   5589   5598     1
   5589   5594     1
   5589   5592     1
   5589   5593     1
   5590   5598     1
   5590   5594     1
   5590   5592     1
   5590   5593     1
   5591   5597     1
   5592   5595     1
   5592   5596     1
   5593   5595     1
   5593   5596     1
   5595   5597     1
   5599   5604     1
   5599   5602     1
   5599   5603     1
   5600   5604     1
   5600   5602     1
   5600   5603     1
   5601   5607     1
   5602   5605     1
   5602   5606     1
   5603   5605     1
   5603   5606     1
   5605   5607     1
   5609   5616     1
   5609   5617     1
   5610   5615     1
   5610   5613     1
   5610   5614     1
   5611   5615     1
   5611   5613     1
   5611   5614     1
   5613   5618     1
   5613   5616     1
   5613   5617     1
   5613   5639     1
   5614   5618     1
   5614   5616     1
   5614   5617     1
   5614   5639     1
   5615   5620     1
   5615   5621     1
   5615   5630     1
   5615   5631     1
   5616   5619     1
   5616   5629     1
   5617   5619     1
   5617   5629     1
   5618   5623     1
   5618   5624     1
   5618   5633     1
   5618   5634     1
   5619   5630     1
   5619   5631     1
   5620   5625     1
   5620   5623     1
   5620   5624     1
   5620   5629     1
   5621   5625     1
   5621   5623     1
   5621   5624     1
   5621   5629     1
   5622   5628     1
   5623   5626     1
   5623   5627     1
   5624   5626     1
   5624   5627     1
   5626   5628     1
   5630   5635     1
   5630   5633     1
   5630   5634     1
   5631   5635     1
   5631   5633     1
   5631   5634     1
   5632   5638     1
   5633   5636     1
   5633   5637     1
   5634   5636     1
   5634   5637     1
   5636   5638     1
   5640   5647     1
   5640   5648     1
   5641   5646     1
   5641   5644     1
   5641   5645     1
   5642   5646     1
   5642   5644     1
   5642   5645     1
   5644   5670     1
   5644   5649     1
   5644   5647     1
   5644   5648     1
   5645   5670     1
   5645   5649     1
   5645   5647     1
   5645   5648     1
   5646   5651     1
   5646   5652     1
   5646   5661     1
   5646   5662     1
   5647   5650     1
   5647   5660     1
   5648   5650     1
   5648   5660     1
   5649   5654     1
   5649   5655     1
   5649   5664     1
   5649   5665     1
   5650   5661     1
   5650   5662     1
   5651   5660     1
   5651   5656     1
   5651   5654     1
   5651   5655     1
   5652   5660     1
   5652   5656     1
   5652   5654     1
   5652   5655     1
   5653   5659     1
   5654   5657     1
   5654   5658     1
   5655   5657     1
   5655   5658     1
   5657   5659     1
   5661   5666     1
   5661   5664     1
   5661   5665     1
   5662   5666     1
   5662   5664     1
   5662   5665     1
   5663   5669     1
   5664   5667     1
   5664   5668     1
   5665   5667     1
   5665   5668     1
   5667   5669     1
   5671   5678     1
   5671   5679     1
   5672   5677     1
   5672   5675     1
   5672   5676     1
   5673   5677     1
   5673   5675     1
   5673   5676     1
   5675   5680     1
   5675   5678     1
   5675   5679     1
   5675   5701     1
   5676   5680     1
   5676   5678     1
   5676   5679     1
   5676   5701     1
   5677   5682     1
   5677   5683     1
   5677   5692     1
   5677   5693     1
   5678   5681     1
   5678   5691     1
   5679   5681     1
   5679   5691     1
   5680   5685     1
   5680   5686     1
   5680   5695     1
   5680   5696     1
   5681   5692     1
   5681   5693     1
   5682   5687     1
   5682   5685     1
   5682   5686     1
   5682   5691     1
   5683   5687     1
   5683   5685     1
   5683   5686     1
   5683   5691     1
   5684   5690     1
   5685   5688     1
   5685   5689     1
   5686   5688     1
   5686   5689     1
   5688   5690     1
   5692   5697     1
   5692   5695     1
   5692   5696     1
   5693   5697     1
   5693   5695     1
   5693   5696     1
   5694   5700     1
   5695   5698     1
   5695   5699     1
   5696   5698     1
   5696   5699     1
   5698   5700     1

[ angles ]
;    ai     aj     ak funct         c0         c1         c2         c3
      1      2     14     1   111.0400475 552.288000
      1      5     17     1   111.0400475 552.288000
      1      8     11     1   111.0400475 552.288000
      2      1      5     1   112.3500484 533.878400
      2      1      8     1   112.3500484 533.878400
      2     14     26     1   111.5100476 526.347200
      5      1      8     1   112.3500484 533.878400
      5     17     20     1   111.5100476 526.347200
      8     11     23     1   111.5100476 526.347200
     11     23     86     1   107.9700462 569.024000
     14     26    115     1   107.9700462 569.024000
     17     20     57     1   107.9700462 569.024000
     20     57     48     1   112.4800480 524.673600
     23     86     77     1   112.4800480 524.673600
     26    115    106     1   112.4800480 524.673600
     29     30     42     1   111.0400475 552.288000
     29     33     45     1   111.0400475 552.288000
     29     36     39     1   111.0400475 552.288000
     30     29     33     1   112.3500484 533.878400
     30     29     36     1   112.3500484 533.878400
     30     42     54     1   111.5100476 526.347200
     33     29     36     1   112.3500484 533.878400
     33     45     51     1   111.5100476 526.347200
     36     39     48     1   111.5100476 526.347200
     39     48     57     1   107.9700462 569.024000
     42     54    173     1   107.9700462 569.024000
     45     51    144     1   107.9700462 569.024000
     51    144    135     1   112.4800480 524.673600
     54    173    164     1   112.4800480 524.673600
     58     59     71     1   111.0400475 552.288000
     58     62     74     1   111.0400475 552.288000
     58     65     68     1   111.0400475 552.288000
     59     58     62     1   112.3500484 533.878400
     59     58     65     1   112.3500484 533.878400
     59     71     83     1   111.5100476 526.347200
     62     58     65     1   112.3500484 533.878400
     62     74     80     1   111.5100476 526.347200
     65     68     77     1   111.5100476 526.347200
     68     77     86     1   107.9700462 569.024000
     71     83    231     1   107.9700462 569.024000
     74     80    202     1   107.9700462 569.024000
     80    202    193     1   112.4800480 524.673600
     83    231    222     1   112.4800480 524.673600
     87     88    100     1   111.0400475 552.288000
     87     91    103     1   111.0400475 552.288000
     87     94     97     1   111.0400475 552.288000
     88     87     91     1   112.3500484 533.878400
     88     87     94     1   112.3500484 533.878400
     88    100    112     1   111.5100476 526.347200
     91     87     94     1   112.3500484 533.878400
     91    103    109     1   111.5100476 526.347200
     94     97    106     1   111.5100476 526.347200
     97    106    115     1   107.9700462 569.024000
    100    112    289     1   107.9700462 569.024000
    103    109    260     1   107.9700462 569.024000
    109    260    251     1   112.4800480 524.673600
    112    289    280     1   112.4800480 524.673600
    116    117    129     1   111.0400475 552.288000
    116    120    132     1   111.0400475 552.288000
    116    123    126     1   111.0400475 552.288000
    117    116    120     1   112.3500484 533.878400
    117    116    123     1   112.3500484 533.878400
    117    129    141     1   111.5100476 526.347200
    120    116    123     1   112.3500484 533.878400
    120    132    138     1   111.5100476 526.347200
    123    126    135     1   111.5100476 526.347200
    126    135    144     1   107.9700462 569.024000
    129    141    347     1   107.9700462 569.024000
    132    138    318     1   107.9700462 569.024000
    138    318    309     1   112.4800480 524.673600
    141    347    338     1   112.4800480 524.673600
    145    146    158     1   111.0400475 552.288000
    145    149    161     1   111.0400475 552.288000
    145    152    155     1   111.0400475 552.288000
    146    145    149     1   112.3500484 533.878400
    146    145    152     1   112.3500484 533.878400
    146    158    170     1   111.5100476 526.347200
    149    145    152     1   112.3500484 533.878400
    149    161    167     1   111.5100476 526.347200
    152    155    164     1   111.5100476 526.347200
    155    164    173     1   107.9700462 569.024000
    158    170    405     1   107.9700462 569.024000
    161    167    376     1   107.9700462 569.024000
    167    376    367     1   112.4800480 524.673600
    170    405    396     1   112.4800480 524.673600
    174    175    187     1   111.0400475 552.288000
    174    178    190     1   111.0400475 552.288000
    174    181    184     1   111.0400475 552.288000
    175    174    178     1   112.3500484 533.878400
    175    174    181     1   112.3500484 533.878400
    175    187    199     1   111.5100476 526.347200
    178    174    181     1   112.3500484 533.878400
    178    190    196     1   111.5100476 526.347200
    181    184    193     1   111.5100476 526.347200
    184    193    202     1   107.9700462 569.024000
    187    199    463     1   107.9700462 569.024000
    190    196    434     1   107.9700462 569.024000
    196    434    425     1   112.4800480 524.673600
    199    463    454     1   112.4800480 524.673600
    203    204    216     1   111.0400475 552.288000
    203    207    219     1   111.0400475 552.288000
    203    210    213     1   111.0400475 552.288000
    204    203    207     1   112.3500484 533.878400
    204    203    210     1   112.3500484 533.878400
    204    216    228     1   111.5100476 526.347200
    207    203    210     1   112.3500484 533.878400
    207    219    225     1   111.5100476 526.347200
    210    213    222     1   111.5100476 526.347200
    213    222    231     1   107.9700462 569.024000
    216    228    521     1   107.9700462 569.024000
    219    225    492     1   107.9700462 569.024000
    225    492    483     1   112.4800480 524.673600
    228    521    512     1   112.4800480 524.673600
    232    233    245     1   111.0400475 552.288000
    232    236    248     1   111.0400475 552.288000
    232    239    242     1   111.0400475 552.288000
    233    232    236     1   112.3500484 533.878400
    233    232    239     1   112.3500484 533.878400
    233    245    257     1   111.5100476 526.347200
    236    232    239     1   112.3500484 533.878400
    236    248    254     1   111.5100476 526.347200
    239    242    251     1   111.5100476 526.347200
    242    251    260     1   107.9700462 569.024000
    245    257    579     1   107.9700462 569.024000
    248    254    550     1   107.9700462 569.024000
    254    550    541     1   112.4800480 524.673600
    257    579    570     1   112.4800480 524.673600
    261    262    274     1   111.0400475 552.288000
    261    265    277     1   111.0400475 552.288000
    261    268    271     1   111.0400475 552.288000
    262    261    265     1   112.3500484 533.878400
    262    261    268     1   112.3500484 533.878400
    262    274    286     1   111.5100476 526.347200
    265    261    268     1   112.3500484 533.878400
    265    277    283     1   111.5100476 526.347200
    268    271    280     1   111.5100476 526.347200
    271    280    289     1   107.9700462 569.024000
    274    286    637     1   107.9700462 569.024000
    277    283    608     1   107.9700462 569.024000
    283    608    599     1   112.4800480 524.673600
    286    637    628     1   112.4800480 524.673600
    290    291    303     1   111.0400475 552.288000
    290    294    306     1   111.0400475 552.288000
    290    297    300     1   111.0400475 552.288000
    291    290    294     1   112.3500484 533.878400
    291    290    297     1   112.3500484 533.878400
    291    303    315     1   111.5100476 526.347200
    294    290    297     1   112.3500484 533.878400
    294    306    312     1   111.5100476 526.347200
    297    300    309     1   111.5100476 526.347200
    300    309    318     1   107.9700462 569.024000
    303    315    695     1   107.9700462 569.024000
    306    312    666     1   107.9700462 569.024000
    312    666    657     1   112.4800480 524.673600
    315    695    686     1   112.4800480 524.673600
    319    320    332     1   111.0400475 552.288000
    319    323    335     1   111.0400475 552.288000
    319    326    329     1   111.0400475 552.288000
    320    319    323     1   112.3500484 533.878400
    320    319    326     1   112.3500484 533.878400
    320    332    344     1   111.5100476 526.347200
    323    319    326     1   112.3500484 533.878400
    323    335    341     1   111.5100476 526.347200
    326    329    338     1   111.5100476 526.347200
    329    338    347     1   107.9700462 569.024000
    332    344    753     1   107.9700462 569.024000
    335    341    724     1   107.9700462 569.024000
    341    724    715     1   112.4800480 524.673600
    344    753    744     1   112.4800480 524.673600
    348    349    361     1   111.0400475 552.288000
    348    352    364     1   111.0400475 552.288000
    348    355    358     1   111.0400475 552.288000
    349    348    352     1   112.3500484 533.878400
    349    348    355     1   112.3500484 533.878400
    349    361    373     1   111.5100476 526.347200
    352    348    355     1   112.3500484 533.878400
    352    364    370     1   111.5100476 526.347200
    355    358    367     1   111.5100476 526.347200
    358    367    376     1   107.9700462 569.024000
    361    373    811     1   107.9700462 569.024000
    364    370    782     1   107.9700462 569.024000
    370    782    773     1   112.4800480 524.673600
    373    811    802     1   112.4800480 524.673600
    377    378    390     1   111.0400475 552.288000
    377    381    393     1   111.0400475 552.288000
    377    384    387     1   111.0400475 552.288000
    378    377    381     1   112.3500484 533.878400
    378    377    384     1   112.3500484 533.878400
    378    390    402     1   111.5100476 526.347200
    381    377    384     1   112.3500484 533.878400
    381    393    399     1   111.5100476 526.347200
    384    387    396     1   111.5100476 526.347200
    387    396    405     1   107.9700462 569.024000
    390    402    869     1   107.9700462 569.024000
    393    399    840     1   107.9700462 569.024000
    399    840    831     1   112.4800480 524.673600
    402    869    860     1   112.4800480 524.673600
    406    407    419     1   111.0400475 552.288000
    406    410    422     1   111.0400475 552.288000
    406    413    416     1   111.0400475 552.288000
    407    406    410     1   112.3500484 533.878400
    407    406    413     1   112.3500484 533.878400
    407    419    431     1   111.5100476 526.347200
    410    406    413     1   112.3500484 533.878400
    410    422    428     1   111.5100476 526.347200
    413    416    425     1   111.5100476 526.347200
    416    425    434     1   107.9700462 569.024000
    419    431    927     1   107.9700462 569.024000
    422    428    898     1   107.9700462 569.024000
    428    898    889     1   112.4800480 524.673600
    431    927    918     1   112.4800480 524.673600
    435    436    448     1   111.0400475 552.288000
    435    439    451     1   111.0400475 552.288000
    435    442    445     1   111.0400475 552.288000
    436    435    439     1   112.3500484 533.878400
    436    435    442     1   112.3500484 533.878400
    436    448    460     1   111.5100476 526.347200
    439    435    442     1   112.3500484 533.878400
    439    451    457     1   111.5100476 526.347200
    442    445    454     1   111.5100476 526.347200
    445    454    463     1   107.9700462 569.024000
    448    460    985     1   107.9700462 569.024000
    451    457    956     1   107.9700462 569.024000
    457    956    947     1   112.4800480 524.673600
    460    985    976     1   112.4800480 524.673600
    464    465    477     1   111.0400475 552.288000
    464    468    480     1   111.0400475 552.288000
    464    471    474     1   111.0400475 552.288000
    465    464    468     1   112.3500484 533.878400
    465    464    471     1   112.3500484 533.878400
    465    477    489     1   111.5100476 526.347200
    468    464    471     1   112.3500484 533.878400
    468    480    486     1   111.5100476 526.347200
    471    474    483     1   111.5100476 526.347200
    474    483    492     1   107.9700462 569.024000
    477    489   1043     1   107.9700462 569.024000
    480    486   1014     1   107.9700462 569.024000
    486   1014   1005     1   112.4800480 524.673600
    489   1043   1034     1   112.4800480 524.673600
    493    494    506     1   111.0400475 552.288000
    493    497    509     1   111.0400475 552.288000
    493    500    503     1   111.0400475 552.288000
    494    493    497     1   112.3500484 533.878400
    494    493    500     1   112.3500484 533.878400
    494    506    518     1   111.5100476 526.347200
    497    493    500     1   112.3500484 533.878400
    497    509    515     1   111.5100476 526.347200
    500    503    512     1   111.5100476 526.347200
    503    512    521     1   107.9700462 569.024000
    506    518   1101     1   107.9700462 569.024000
    509    515   1072     1   107.9700462 569.024000
    515   1072   1063     1   112.4800480 524.673600
    518   1101   1092     1   112.4800480 524.673600
    522    523    535     1   111.0400475 552.288000
    522    526    538     1   111.0400475 552.288000
    522    529    532     1   111.0400475 552.288000
    523    522    526     1   112.3500484 533.878400
    523    522    529     1   112.3500484 533.878400
    523    535    547     1   111.5100476 526.347200
    526    522    529     1   112.3500484 533.878400
    526    538    544     1   111.5100476 526.347200
    529    532    541     1   111.5100476 526.347200
    532    541    550     1   107.9700462 569.024000
    535    547   1159     1   107.9700462 569.024000
    538    544   1130     1   107.9700462 569.024000
    544   1130   1121     1   112.4800480 524.673600
    547   1159   1150     1   112.4800480 524.673600
    551    552    564     1   111.0400475 552.288000
    551    555    567     1   111.0400475 552.288000
    551    558    561     1   111.0400475 552.288000
    552    551    555     1   112.3500484 533.878400
    552    551    558     1   112.3500484 533.878400
    552    564    576     1   111.5100476 526.347200
    555    551    558     1   112.3500484 533.878400
    555    567    573     1   111.5100476 526.347200
    558    561    570     1   111.5100476 526.347200
    561    570    579     1   107.9700462 569.024000
    564    576   1217     1   107.9700462 569.024000
    567    573   1188     1   107.9700462 569.024000
    573   1188   1179     1   112.4800480 524.673600
    576   1217   1208     1   112.4800480 524.673600
    580    581    593     1   111.0400475 552.288000
    580    584    596     1   111.0400475 552.288000
    580    587    590     1   111.0400475 552.288000
    581    580    584     1   112.3500484 533.878400
    581    580    587     1   112.3500484 533.878400
    581    593    605     1   111.5100476 526.347200
    584    580    587     1   112.3500484 533.878400
    584    596    602     1   111.5100476 526.347200
    587    590    599     1   111.5100476 526.347200
    590    599    608     1   107.9700462 569.024000
    593    605   1275     1   107.9700462 569.024000
    596    602   1246     1   107.9700462 569.024000
    602   1246   1237     1   112.4800480 524.673600
    605   1275   1266     1   112.4800480 524.673600
    609    610    622     1   111.0400475 552.288000
    609    613    625     1   111.0400475 552.288000
    609    616    619     1   111.0400475 552.288000
    610    609    613     1   112.3500484 533.878400
    610    609    616     1   112.3500484 533.878400
    610    622    634     1   111.5100476 526.347200
    613    609    616     1   112.3500484 533.878400
    613    625    631     1   111.5100476 526.347200
    616    619    628     1   111.5100476 526.347200
    619    628    637     1   107.9700462 569.024000
    622    634   1333     1   107.9700462 569.024000
    625    631   1304     1   107.9700462 569.024000
    631   1304   1295     1   112.4800480 524.673600
    634   1333   1324     1   112.4800480 524.673600
    638    639    651     1   111.0400475 552.288000
    638    642    654     1   111.0400475 552.288000
    638    645    648     1   111.0400475 552.288000
    639    638    642     1   112.3500484 533.878400
    639    638    645     1   112.3500484 533.878400
    639    651    663     1   111.5100476 526.347200
    642    638    645     1   112.3500484 533.878400
    642    654    660     1   111.5100476 526.347200
    645    648    657     1   111.5100476 526.347200
    648    657    666     1   107.9700462 569.024000
    651    663   1391     1   107.9700462 569.024000
    654    660   1362     1   107.9700462 569.024000
    660   1362   1353     1   112.4800480 524.673600
    663   1391   1382     1   112.4800480 524.673600
    667    668    680     1   111.0400475 552.288000
    667    671    683     1   111.0400475 552.288000
    667    674    677     1   111.0400475 552.288000
    668    667    671     1   112.3500484 533.878400
    668    667    674     1   112.3500484 533.878400
    668    680    692     1   111.5100476 526.347200
    671    667    674     1   112.3500484 533.878400
    671    683    689     1   111.5100476 526.347200
    674    677    686     1   111.5100476 526.347200
    677    686    695     1   107.9700462 569.024000
    680    692   1449     1   107.9700462 569.024000
    683    689   1420     1   107.9700462 569.024000
    689   1420   1411     1   112.4800480 524.673600
    692   1449   1440     1   112.4800480 524.673600
    696    697    709     1   111.0400475 552.288000
    696    700    712     1   111.0400475 552.288000
    696    703    706     1   111.0400475 552.288000
    697    696    700     1   112.3500484 533.878400
    697    696    703     1   112.3500484 533.878400
    697    709    721     1   111.5100476 526.347200
    700    696    703     1   112.3500484 533.878400
    700    712    718     1   111.5100476 526.347200
    703    706    715     1   111.5100476 526.347200
    706    715    724     1   107.9700462 569.024000
    709    721   1507     1   107.9700462 569.024000
    712    718   1478     1   107.9700462 569.024000
    718   1478   1469     1   112.4800480 524.673600
    721   1507   1498     1   112.4800480 524.673600
    725    726    738     1   111.0400475 552.288000
    725    729    741     1   111.0400475 552.288000
    725    732    735     1   111.0400475 552.288000
    726    725    729     1   112.3500484 533.878400
    726    725    732     1   112.3500484 533.878400
    726    738    750     1   111.5100476 526.347200
    729    725    732     1   112.3500484 533.878400
    729    741    747     1   111.5100476 526.347200
    732    735    744     1   111.5100476 526.347200
    735    744    753     1   107.9700462 569.024000
    738    750   1565     1   107.9700462 569.024000
    741    747   1536     1   107.9700462 569.024000
    747   1536   1527     1   112.4800480 524.673600
    750   1565   1556     1   112.4800480 524.673600
    754    755    767     1   111.0400475 552.288000
    754    758    770     1   111.0400475 552.288000
    754    761    764     1   111.0400475 552.288000
    755    754    758     1   112.3500484 533.878400
    755    754    761     1   112.3500484 533.878400
    755    767    779     1   111.5100476 526.347200
    758    754    761     1   112.3500484 533.878400
    758    770    776     1   111.5100476 526.347200
    761    764    773     1   111.5100476 526.347200
    764    773    782     1   107.9700462 569.024000
    767    779   1623     1   107.9700462 569.024000
    770    776   1594     1   107.9700462 569.024000
    776   1594   1585     1   112.4800480 524.673600
    779   1623   1614     1   112.4800480 524.673600
    783    784    796     1   111.0400475 552.288000
    783    787    799     1   111.0400475 552.288000
    783    790    793     1   111.0400475 552.288000
    784    783    787     1   112.3500484 533.878400
    784    783    790     1   112.3500484 533.878400
    784    796    808     1   111.5100476 526.347200
    787    783    790     1   112.3500484 533.878400
    787    799    805     1   111.5100476 526.347200
    790    793    802     1   111.5100476 526.347200
    793    802    811     1   107.9700462 569.024000
    796    808   1681     1   107.9700462 569.024000
    799    805   1652     1   107.9700462 569.024000
    805   1652   1643     1   112.4800480 524.673600
    808   1681   1672     1   112.4800480 524.673600
    812    813    825     1   111.0400475 552.288000
    812    816    828     1   111.0400475 552.288000
    812    819    822     1   111.0400475 552.288000
    813    812    816     1   112.3500484 533.878400
    813    812    819     1   112.3500484 533.878400
    813    825    837     1   111.5100476 526.347200
    816    812    819     1   112.3500484 533.878400
    816    828    834     1   111.5100476 526.347200
    819    822    831     1   111.5100476 526.347200
    822    831    840     1   107.9700462 569.024000
    825    837   1739     1   107.9700462 569.024000
    828    834   1710     1   107.9700462 569.024000
    834   1710   1701     1   112.4800480 524.673600
    837   1739   1730     1   112.4800480 524.673600
    841    842    854     1   111.0400475 552.288000
    841    845    857     1   111.0400475 552.288000
    841    848    851     1   111.0400475 552.288000
    842    841    845     1   112.3500484 533.878400
    842    841    848     1   112.3500484 533.878400
    842    854    866     1   111.5100476 526.347200
    845    841    848     1   112.3500484 533.878400
    845    857    863     1   111.5100476 526.347200
    848    851    860     1   111.5100476 526.347200
    851    860    869     1   107.9700462 569.024000
    854    866   1797     1   107.9700462 569.024000
    857    863   1768     1   107.9700462 569.024000
    863   1768   1759     1   112.4800480 524.673600
    866   1797   1788     1   112.4800480 524.673600
    870    871    883     1   111.0400475 552.288000
    870    874    886     1   111.0400475 552.288000
    870    877    880     1   111.0400475 552.288000
    871    870    874     1   112.3500484 533.878400
    871    870    877     1   112.3500484 533.878400
    871    883    895     1   111.5100476 526.347200
    874    870    877     1   112.3500484 533.878400
    874    886    892     1   111.5100476 526.347200
    877    880    889     1   111.5100476 526.347200
    880    889    898     1   107.9700462 569.024000
    883    895   1855     1   107.9700462 569.024000
    886    892   1826     1   107.9700462 569.024000
    892   1826   1817     1   112.4800480 524.673600
    895   1855   1846     1   112.4800480 524.673600
    899    900    912     1   111.0400475 552.288000
    899    903    915     1   111.0400475 552.288000
    899    906    909     1   111.0400475 552.288000
    900    899    903     1   112.3500484 533.878400
    900    899    906     1   112.3500484 533.878400
    900    912    924     1   111.5100476 526.347200
    903    899    906     1   112.3500484 533.878400
    903    915    921     1   111.5100476 526.347200
    906    909    918     1   111.5100476 526.347200
    909    918    927     1   107.9700462 569.024000
    912    924   1913     1   107.9700462 569.024000
    915    921   1884     1   107.9700462 569.024000
    921   1884   1875     1   112.4800480 524.673600
    924   1913   1904     1   112.4800480 524.673600
    928    929    941     1   111.0400475 552.288000
    928    932    944     1   111.0400475 552.288000
    928    935    938     1   111.0400475 552.288000
    929    928    932     1   112.3500484 533.878400
    929    928    935     1   112.3500484 533.878400
    929    941    953     1   111.5100476 526.347200
    932    928    935     1   112.3500484 533.878400
    932    944    950     1   111.5100476 526.347200
    935    938    947     1   111.5100476 526.347200
    938    947    956     1   107.9700462 569.024000
    941    953   1971     1   107.9700462 569.024000
    944    950   1942     1   107.9700462 569.024000
    950   1942   1933     1   112.4800480 524.673600
    953   1971   1962     1   112.4800480 524.673600
    957    958    970     1   111.0400475 552.288000
    957    961    973     1   111.0400475 552.288000
    957    964    967     1   111.0400475 552.288000
    958    957    961     1   112.3500484 533.878400
    958    957    964     1   112.3500484 533.878400
    958    970    982     1   111.5100476 526.347200
    961    957    964     1   112.3500484 533.878400
    961    973    979     1   111.5100476 526.347200
    964    967    976     1   111.5100476 526.347200
    967    976    985     1   107.9700462 569.024000
    970    982   2029     1   107.9700462 569.024000
    973    979   2000     1   107.9700462 569.024000
    979   2000   1991     1   112.4800480 524.673600
    982   2029   2020     1   112.4800480 524.673600
    986    987    999     1   111.0400475 552.288000
    986    990   1002     1   111.0400475 552.288000
    986    993    996     1   111.0400475 552.288000
    987    986    990     1   112.3500484 533.878400
    987    986    993     1   112.3500484 533.878400
    987    999   1011     1   111.5100476 526.347200
    990    986    993     1   112.3500484 533.878400
    990   1002   1008     1   111.5100476 526.347200
    993    996   1005     1   111.5100476 526.347200
    996   1005   1014     1   107.9700462 569.024000
    999   1011   2087     1   107.9700462 569.024000
   1002   1008   2058     1   107.9700462 569.024000
   1008   2058   2049     1   112.4800480 524.673600
   1011   2087   2078     1   112.4800480 524.673600
   1015   1016   1028     1   111.0400475 552.288000
   1015   1019   1031     1   111.0400475 552.288000
   1015   1022   1025     1   111.0400475 552.288000
   1016   1015   1019     1   112.3500484 533.878400
   1016   1015   1022     1   112.3500484 533.878400
   1016   1028   1040     1   111.5100476 526.347200
   1019   1015   1022     1   112.3500484 533.878400
   1019   1031   1037     1   111.5100476 526.347200
   1022   1025   1034     1   111.5100476 526.347200
   1025   1034   1043     1   107.9700462 569.024000
   1028   1040   2145     1   107.9700462 569.024000
   1031   1037   2116     1   107.9700462 569.024000
   1037   2116   2107     1   112.4800480 524.673600
   1040   2145   2136     1   112.4800480 524.673600
   1044   1045   1057     1   111.0400475 552.288000
   1044   1048   1060     1   111.0400475 552.288000
   1044   1051   1054     1   111.0400475 552.288000
   1045   1044   1048     1   112.3500484 533.878400
   1045   1044   1051     1   112.3500484 533.878400
   1045   1057   1069     1   111.5100476 526.347200
   1048   1044   1051     1   112.3500484 533.878400
   1048   1060   1066     1   111.5100476 526.347200
   1051   1054   1063     1   111.5100476 526.347200
   1054   1063   1072     1   107.9700462 569.024000
   1057   1069   2203     1   107.9700462 569.024000
   1060   1066   2174     1   107.9700462 569.024000
   1066   2174   2165     1   112.4800480 524.673600
   1069   2203   2194     1   112.4800480 524.673600
   1073   1074   1086     1   111.0400475 552.288000
   1073   1077   1089     1   111.0400475 552.288000
   1073   1080   1083     1   111.0400475 552.288000
   1074   1073   1077     1   112.3500484 533.878400
   1074   1073   1080     1   112.3500484 533.878400
   1074   1086   1098     1   111.5100476 526.347200
   1077   1073   1080     1   112.3500484 533.878400
   1077   1089   1095     1   111.5100476 526.347200
   1080   1083   1092     1   111.5100476 526.347200
   1083   1092   1101     1   107.9700462 569.024000
   1086   1098   2261     1   107.9700462 569.024000
   1089   1095   2232     1   107.9700462 569.024000
   1095   2232   2223     1   112.4800480 524.673600
   1098   2261   2252     1   112.4800480 524.673600
   1102   1103   1115     1   111.0400475 552.288000
   1102   1106   1118     1   111.0400475 552.288000
   1102   1109   1112     1   111.0400475 552.288000
   1103   1102   1106     1   112.3500484 533.878400
   1103   1102   1109     1   112.3500484 533.878400
   1103   1115   1127     1   111.5100476 526.347200
   1106   1102   1109     1   112.3500484 533.878400
   1106   1118   1124     1   111.5100476 526.347200
   1109   1112   1121     1   111.5100476 526.347200
   1112   1121   1130     1   107.9700462 569.024000
   1115   1127   2319     1   107.9700462 569.024000
   1118   1124   2290     1   107.9700462 569.024000
   1124   2290   2281     1   112.4800480 524.673600
   1127   2319   2310     1   112.4800480 524.673600
   1131   1132   1144     1   111.0400475 552.288000
   1131   1135   1147     1   111.0400475 552.288000
   1131   1138   1141     1   111.0400475 552.288000
   1132   1131   1135     1   112.3500484 533.878400
   1132   1131   1138     1   112.3500484 533.878400
   1132   1144   1156     1   111.5100476 526.347200
   1135   1131   1138     1   112.3500484 533.878400
   1135   1147   1153     1   111.5100476 526.347200
   1138   1141   1150     1   111.5100476 526.347200
   1141   1150   1159     1   107.9700462 569.024000
   1144   1156   2377     1   107.9700462 569.024000
   1147   1153   2348     1   107.9700462 569.024000
   1153   2348   2339     1   112.4800480 524.673600
   1156   2377   2368     1   112.4800480 524.673600
   1160   1161   1173     1   111.0400475 552.288000
   1160   1164   1176     1   111.0400475 552.288000
   1160   1167   1170     1   111.0400475 552.288000
   1161   1160   1164     1   112.3500484 533.878400
   1161   1160   1167     1   112.3500484 533.878400
   1161   1173   1185     1   111.5100476 526.347200
   1164   1160   1167     1   112.3500484 533.878400
   1164   1176   1182     1   111.5100476 526.347200
   1167   1170   1179     1   111.5100476 526.347200
   1170   1179   1188     1   107.9700462 569.024000
   1173   1185   2435     1   107.9700462 569.024000
   1176   1182   2406     1   107.9700462 569.024000
   1182   2406   2397     1   112.4800480 524.673600
   1185   2435   2426     1   112.4800480 524.673600
   1189   1190   1202     1   111.0400475 552.288000
   1189   1193   1205     1   111.0400475 552.288000
   1189   1196   1199     1   111.0400475 552.288000
   1190   1189   1193     1   112.3500484 533.878400
   1190   1189   1196     1   112.3500484 533.878400
   1190   1202   1214     1   111.5100476 526.347200
   1193   1189   1196     1   112.3500484 533.878400
   1193   1205   1211     1   111.5100476 526.347200
   1196   1199   1208     1   111.5100476 526.347200
   1199   1208   1217     1   107.9700462 569.024000
   1202   1214   2493     1   107.9700462 569.024000
   1205   1211   2464     1   107.9700462 569.024000
   1211   2464   2455     1   112.4800480 524.673600
   1214   2493   2484     1   112.4800480 524.673600
   1218   1219   1231     1   111.0400475 552.288000
   1218   1222   1234     1   111.0400475 552.288000
   1218   1225   1228     1   111.0400475 552.288000
   1219   1218   1222     1   112.3500484 533.878400
   1219   1218   1225     1   112.3500484 533.878400
   1219   1231   1243     1   111.5100476 526.347200
   1222   1218   1225     1   112.3500484 533.878400
   1222   1234   1240     1   111.5100476 526.347200
   1225   1228   1237     1   111.5100476 526.347200
   1228   1237   1246     1   107.9700462 569.024000
   1231   1243   2551     1   107.9700462 569.024000
   1234   1240   2522     1   107.9700462 569.024000
   1240   2522   2513     1   112.4800480 524.673600
   1243   2551   2542     1   112.4800480 524.673600
   1247   1248   1260     1   111.0400475 552.288000
   1247   1251   1263     1   111.0400475 552.288000
   1247   1254   1257     1   111.0400475 552.288000
   1248   1247   1251     1   112.3500484 533.878400
   1248   1247   1254     1   112.3500484 533.878400
   1248   1260   1272     1   111.5100476 526.347200
   1251   1247   1254     1   112.3500484 533.878400
   1251   1263   1269     1   111.5100476 526.347200
   1254   1257   1266     1   111.5100476 526.347200
   1257   1266   1275     1   107.9700462 569.024000
   1260   1272   2609     1   107.9700462 569.024000
   1263   1269   2580     1   107.9700462 569.024000
   1269   2580   2571     1   112.4800480 524.673600
   1272   2609   2600     1   112.4800480 524.673600
   1276   1277   1289     1   111.0400475 552.288000
   1276   1280   1292     1   111.0400475 552.288000
   1276   1283   1286     1   111.0400475 552.288000
   1277   1276   1280     1   112.3500484 533.878400
   1277   1276   1283     1   112.3500484 533.878400
   1277   1289   1301     1   111.5100476 526.347200
   1280   1276   1283     1   112.3500484 533.878400
   1280   1292   1298     1   111.5100476 526.347200
   1283   1286   1295     1   111.5100476 526.347200
   1286   1295   1304     1   107.9700462 569.024000
   1289   1301   2667     1   107.9700462 569.024000
   1292   1298   2638     1   107.9700462 569.024000
   1298   2638   2629     1   112.4800480 524.673600
   1301   2667   2658     1   112.4800480 524.673600
   1305   1306   1318     1   111.0400475 552.288000
   1305   1309   1321     1   111.0400475 552.288000
   1305   1312   1315     1   111.0400475 552.288000
   1306   1305   1309     1   112.3500484 533.878400
   1306   1305   1312     1   112.3500484 533.878400
   1306   1318   1330     1   111.5100476 526.347200
   1309   1305   1312     1   112.3500484 533.878400
   1309   1321   1327     1   111.5100476 526.347200
   1312   1315   1324     1   111.5100476 526.347200
   1315   1324   1333     1   107.9700462 569.024000
   1318   1330   2725     1   107.9700462 569.024000
   1321   1327   2696     1   107.9700462 569.024000
   1327   2696   2687     1   112.4800480 524.673600
   1330   2725   2716     1   112.4800480 524.673600
   1334   1335   1347     1   111.0400475 552.288000
   1334   1338   1350     1   111.0400475 552.288000
   1334   1341   1344     1   111.0400475 552.288000
   1335   1334   1338     1   112.3500484 533.878400
   1335   1334   1341     1   112.3500484 533.878400
   1335   1347   1359     1   111.5100476 526.347200
   1338   1334   1341     1   112.3500484 533.878400
   1338   1350   1356     1   111.5100476 526.347200
   1341   1344   1353     1   111.5100476 526.347200
   1344   1353   1362     1   107.9700462 569.024000
   1347   1359   2787     1   107.9700462 569.024000
   1350   1356   2756     1   107.9700462 569.024000
   1356   2756   2726     1   112.4800480 524.673600
   1359   2787   2757     1   112.4800480 524.673600
   1363   1364   1376     1   111.0400475 552.288000
   1363   1367   1379     1   111.0400475 552.288000
   1363   1370   1373     1   111.0400475 552.288000
   1364   1363   1367     1   112.3500484 533.878400
   1364   1363   1370     1   112.3500484 533.878400
   1364   1376   1388     1   111.5100476 526.347200
   1367   1363   1370     1   112.3500484 533.878400
   1367   1379   1385     1   111.5100476 526.347200
   1370   1373   1382     1   111.5100476 526.347200
   1373   1382   1391     1   107.9700462 569.024000
   1376   1388   2849     1   107.9700462 569.024000
   1379   1385   2818     1   107.9700462 569.024000
   1385   2818   2788     1   112.4800480 524.673600
   1388   2849   2819     1   112.4800480 524.673600
   1392   1393   1405     1   111.0400475 552.288000
   1392   1396   1408     1   111.0400475 552.288000
   1392   1399   1402     1   111.0400475 552.288000
   1393   1392   1396     1   112.3500484 533.878400
   1393   1392   1399     1   112.3500484 533.878400
   1393   1405   1417     1   111.5100476 526.347200
   1396   1392   1399     1   112.3500484 533.878400
   1396   1408   1414     1   111.5100476 526.347200
   1399   1402   1411     1   111.5100476 526.347200
   1402   1411   1420     1   107.9700462 569.024000
   1405   1417   2911     1   107.9700462 569.024000
   1408   1414   2880     1   107.9700462 569.024000
   1414   2880   2850     1   112.4800480 524.673600
   1417   2911   2881     1   112.4800480 524.673600
   1421   1422   1434     1   111.0400475 552.288000
   1421   1425   1437     1   111.0400475 552.288000
   1421   1428   1431     1   111.0400475 552.288000
   1422   1421   1425     1   112.3500484 533.878400
   1422   1421   1428     1   112.3500484 533.878400
   1422   1434   1446     1   111.5100476 526.347200
   1425   1421   1428     1   112.3500484 533.878400
   1425   1437   1443     1   111.5100476 526.347200
   1428   1431   1440     1   111.5100476 526.347200
   1431   1440   1449     1   107.9700462 569.024000
   1434   1446   2973     1   107.9700462 569.024000
   1437   1443   2942     1   107.9700462 569.024000
   1443   2942   2912     1   112.4800480 524.673600
   1446   2973   2943     1   112.4800480 524.673600
   1450   1451   1463     1   111.0400475 552.288000
   1450   1454   1466     1   111.0400475 552.288000
   1450   1457   1460     1   111.0400475 552.288000
   1451   1450   1454     1   112.3500484 533.878400
   1451   1450   1457     1   112.3500484 533.878400
   1451   1463   1475     1   111.5100476 526.347200
   1454   1450   1457     1   112.3500484 533.878400
   1454   1466   1472     1   111.5100476 526.347200
   1457   1460   1469     1   111.5100476 526.347200
   1460   1469   1478     1   107.9700462 569.024000
   1463   1475   3035     1   107.9700462 569.024000
   1466   1472   3004     1   107.9700462 569.024000
   1472   3004   2974     1   112.4800480 524.673600
   1475   3035   3005     1   112.4800480 524.673600
   1479   1480   1492     1   111.0400475 552.288000
   1479   1483   1495     1   111.0400475 552.288000
   1479   1486   1489     1   111.0400475 552.288000
   1480   1479   1483     1   112.3500484 533.878400
   1480   1479   1486     1   112.3500484 533.878400
   1480   1492   1504     1   111.5100476 526.347200
   1483   1479   1486     1   112.3500484 533.878400
   1483   1495   1501     1   111.5100476 526.347200
   1486   1489   1498     1   111.5100476 526.347200
   1489   1498   1507     1   107.9700462 569.024000
   1492   1504   3097     1   107.9700462 569.024000
   1495   1501   3066     1   107.9700462 569.024000
   1501   3066   3036     1   112.4800480 524.673600
   1504   3097   3067     1   112.4800480 524.673600
   1508   1509   1521     1   111.0400475 552.288000
   1508   1512   1524     1   111.0400475 552.288000
   1508   1515   1518     1   111.0400475 552.288000
   1509   1508   1512     1   112.3500484 533.878400
   1509   1508   1515     1   112.3500484 533.878400
   1509   1521   1533     1   111.5100476 526.347200
   1512   1508   1515     1   112.3500484 533.878400
   1512   1524   1530     1   111.5100476 526.347200
   1515   1518   1527     1   111.5100476 526.347200
   1518   1527   1536     1   107.9700462 569.024000
   1521   1533   3159     1   107.9700462 569.024000
   1524   1530   3128     1   107.9700462 569.024000
   1530   3128   3098     1   112.4800480 524.673600
   1533   3159   3129     1   112.4800480 524.673600
   1537   1538   1550     1   111.0400475 552.288000
   1537   1541   1553     1   111.0400475 552.288000
   1537   1544   1547     1   111.0400475 552.288000
   1538   1537   1541     1   112.3500484 533.878400
   1538   1537   1544     1   112.3500484 533.878400
   1538   1550   1562     1   111.5100476 526.347200
   1541   1537   1544     1   112.3500484 533.878400
   1541   1553   1559     1   111.5100476 526.347200
   1544   1547   1556     1   111.5100476 526.347200
   1547   1556   1565     1   107.9700462 569.024000
   1550   1562   3221     1   107.9700462 569.024000
   1553   1559   3190     1   107.9700462 569.024000
   1559   3190   3160     1   112.4800480 524.673600
   1562   3221   3191     1   112.4800480 524.673600
   1566   1567   1579     1   111.0400475 552.288000
   1566   1570   1582     1   111.0400475 552.288000
   1566   1573   1576     1   111.0400475 552.288000
   1567   1566   1570     1   112.3500484 533.878400
   1567   1566   1573     1   112.3500484 533.878400
   1567   1579   1591     1   111.5100476 526.347200
   1570   1566   1573     1   112.3500484 533.878400
   1570   1582   1588     1   111.5100476 526.347200
   1573   1576   1585     1   111.5100476 526.347200
   1576   1585   1594     1   107.9700462 569.024000
   1579   1591   3283     1   107.9700462 569.024000
   1582   1588   3252     1   107.9700462 569.024000
   1588   3252   3222     1   112.4800480 524.673600
   1591   3283   3253     1   112.4800480 524.673600
   1595   1596   1608     1   111.0400475 552.288000
   1595   1599   1611     1   111.0400475 552.288000
   1595   1602   1605     1   111.0400475 552.288000
   1596   1595   1599     1   112.3500484 533.878400
   1596   1595   1602     1   112.3500484 533.878400
   1596   1608   1620     1   111.5100476 526.347200
   1599   1595   1602     1   112.3500484 533.878400
   1599   1611   1617     1   111.5100476 526.347200
   1602   1605   1614     1   111.5100476 526.347200
   1605   1614   1623     1   107.9700462 569.024000
   1608   1620   3345     1   107.9700462 569.024000
   1611   1617   3314     1   107.9700462 569.024000
   1617   3314   3284     1   112.4800480 524.673600
   1620   3345   3315     1   112.4800480 524.673600
   1624   1625   1637     1   111.0400475 552.288000
   1624   1628   1640     1   111.0400475 552.288000
   1624   1631   1634     1   111.0400475 552.288000
   1625   1624   1628     1   112.3500484 533.878400
   1625   1624   1631     1   112.3500484 533.878400
   1625   1637   1649     1   111.5100476 526.347200
   1628   1624   1631     1   112.3500484 533.878400
   1628   1640   1646     1   111.5100476 526.347200
   1631   1634   1643     1   111.5100476 526.347200
   1634   1643   1652     1   107.9700462 569.024000
   1637   1649   3407     1   107.9700462 569.024000
   1640   1646   3376     1   107.9700462 569.024000
   1646   3376   3346     1   112.4800480 524.673600
   1649   3407   3377     1   112.4800480 524.673600
   1653   1654   1666     1   111.0400475 552.288000
   1653   1657   1669     1   111.0400475 552.288000
   1653   1660   1663     1   111.0400475 552.288000
   1654   1653   1657     1   112.3500484 533.878400
   1654   1653   1660     1   112.3500484 533.878400
   1654   1666   1678     1   111.5100476 526.347200
   1657   1653   1660     1   112.3500484 533.878400
   1657   1669   1675     1   111.5100476 526.347200
   1660   1663   1672     1   111.5100476 526.347200
   1663   1672   1681     1   107.9700462 569.024000
   1666   1678   3469     1   107.9700462 569.024000
   1669   1675   3438     1   107.9700462 569.024000
   1675   3438   3408     1   112.4800480 524.673600
   1678   3469   3439     1   112.4800480 524.673600
   1682   1683   1695     1   111.0400475 552.288000
   1682   1686   1698     1   111.0400475 552.288000
   1682   1689   1692     1   111.0400475 552.288000
   1683   1682   1686     1   112.3500484 533.878400
   1683   1682   1689     1   112.3500484 533.878400
   1683   1695   1707     1   111.5100476 526.347200
   1686   1682   1689     1   112.3500484 533.878400
   1686   1698   1704     1   111.5100476 526.347200
   1689   1692   1701     1   111.5100476 526.347200
   1692   1701   1710     1   107.9700462 569.024000
   1695   1707   3531     1   107.9700462 569.024000
   1698   1704   3500     1   107.9700462 569.024000
   1704   3500   3470     1   112.4800480 524.673600
   1707   3531   3501     1   112.4800480 524.673600
   1711   1712   1724     1   111.0400475 552.288000
   1711   1715   1727     1   111.0400475 552.288000
   1711   1718   1721     1   111.0400475 552.288000
   1712   1711   1715     1   112.3500484 533.878400
   1712   1711   1718     1   112.3500484 533.878400
   1712   1724   1736     1   111.5100476 526.347200
   1715   1711   1718     1   112.3500484 533.878400
   1715   1727   1733     1   111.5100476 526.347200
   1718   1721   1730     1   111.5100476 526.347200
   1721   1730   1739     1   107.9700462 569.024000
   1724   1736   3593     1   107.9700462 569.024000
   1727   1733   3562     1   107.9700462 569.024000
   1733   3562   3532     1   112.4800480 524.673600
   1736   3593   3563     1   112.4800480 524.673600
   1740   1741   1753     1   111.0400475 552.288000
   1740   1744   1756     1   111.0400475 552.288000
   1740   1747   1750     1   111.0400475 552.288000
   1741   1740   1744     1   112.3500484 533.878400
   1741   1740   1747     1   112.3500484 533.878400
   1741   1753   1765     1   111.5100476 526.347200
   1744   1740   1747     1   112.3500484 533.878400
   1744   1756   1762     1   111.5100476 526.347200
   1747   1750   1759     1   111.5100476 526.347200
   1750   1759   1768     1   107.9700462 569.024000
   1753   1765   3655     1   107.9700462 569.024000
   1756   1762   3624     1   107.9700462 569.024000
   1762   3624   3594     1   112.4800480 524.673600
   1765   3655   3625     1   112.4800480 524.673600
   1769   1770   1782     1   111.0400475 552.288000
   1769   1773   1785     1   111.0400475 552.288000
   1769   1776   1779     1   111.0400475 552.288000
   1770   1769   1773     1   112.3500484 533.878400
   1770   1769   1776     1   112.3500484 533.878400
   1770   1782   1794     1   111.5100476 526.347200
   1773   1769   1776     1   112.3500484 533.878400
   1773   1785   1791     1   111.5100476 526.347200
   1776   1779   1788     1   111.5100476 526.347200
   1779   1788   1797     1   107.9700462 569.024000
   1782   1794   3717     1   107.9700462 569.024000
   1785   1791   3686     1   107.9700462 569.024000
   1791   3686   3656     1   112.4800480 524.673600
   1794   3717   3687     1   112.4800480 524.673600
   1798   1799   1811     1   111.0400475 552.288000
   1798   1802   1814     1   111.0400475 552.288000
   1798   1805   1808     1   111.0400475 552.288000
   1799   1798   1802     1   112.3500484 533.878400
   1799   1798   1805     1   112.3500484 533.878400
   1799   1811   1823     1   111.5100476 526.347200
   1802   1798   1805     1   112.3500484 533.878400
   1802   1814   1820     1   111.5100476 526.347200
   1805   1808   1817     1   111.5100476 526.347200
   1808   1817   1826     1   107.9700462 569.024000
   1811   1823   3779     1   107.9700462 569.024000
   1814   1820   3748     1   107.9700462 569.024000
   1820   3748   3718     1   112.4800480 524.673600
   1823   3779   3749     1   112.4800480 524.673600
   1827   1828   1840     1   111.0400475 552.288000
   1827   1831   1843     1   111.0400475 552.288000
   1827   1834   1837     1   111.0400475 552.288000
   1828   1827   1831     1   112.3500484 533.878400
   1828   1827   1834     1   112.3500484 533.878400
   1828   1840   1852     1   111.5100476 526.347200
   1831   1827   1834     1   112.3500484 533.878400
   1831   1843   1849     1   111.5100476 526.347200
   1834   1837   1846     1   111.5100476 526.347200
   1837   1846   1855     1   107.9700462 569.024000
   1840   1852   3841     1   107.9700462 569.024000
   1843   1849   3810     1   107.9700462 569.024000
   1849   3810   3780     1   112.4800480 524.673600
   1852   3841   3811     1   112.4800480 524.673600
   1856   1857   1869     1   111.0400475 552.288000
   1856   1860   1872     1   111.0400475 552.288000
   1856   1863   1866     1   111.0400475 552.288000
   1857   1856   1860     1   112.3500484 533.878400
   1857   1856   1863     1   112.3500484 533.878400
   1857   1869   1881     1   111.5100476 526.347200
   1860   1856   1863     1   112.3500484 533.878400
   1860   1872   1878     1   111.5100476 526.347200
   1863   1866   1875     1   111.5100476 526.347200
   1866   1875   1884     1   107.9700462 569.024000
   1869   1881   3903     1   107.9700462 569.024000
   1872   1878   3872     1   107.9700462 569.024000
   1878   3872   3842     1   112.4800480 524.673600
   1881   3903   3873     1   112.4800480 524.673600
   1885   1886   1898     1   111.0400475 552.288000
   1885   1889   1901     1   111.0400475 552.288000
   1885   1892   1895     1   111.0400475 552.288000
   1886   1885   1889     1   112.3500484 533.878400
   1886   1885   1892     1   112.3500484 533.878400
   1886   1898   1910     1   111.5100476 526.347200
   1889   1885   1892     1   112.3500484 533.878400
   1889   1901   1907     1   111.5100476 526.347200
   1892   1895   1904     1   111.5100476 526.347200
   1895   1904   1913     1   107.9700462 569.024000
   1898   1910   3965     1   107.9700462 569.024000
   1901   1907   3934     1   107.9700462 569.024000
   1907   3934   3904     1   112.4800480 524.673600
   1910   3965   3935     1   112.4800480 524.673600
   1914   1915   1927     1   111.0400475 552.288000
   1914   1918   1930     1   111.0400475 552.288000
   1914   1921   1924     1   111.0400475 552.288000
   1915   1914   1918     1   112.3500484 533.878400
   1915   1914   1921     1   112.3500484 533.878400
   1915   1927   1939     1   111.5100476 526.347200
   1918   1914   1921     1   112.3500484 533.878400
   1918   1930   1936     1   111.5100476 526.347200
   1921   1924   1933     1   111.5100476 526.347200
   1924   1933   1942     1   107.9700462 569.024000
   1927   1939   4027     1   107.9700462 569.024000
   1930   1936   3996     1   107.9700462 569.024000
   1936   3996   3966     1   112.4800480 524.673600
   1939   4027   3997     1   112.4800480 524.673600
   1943   1944   1956     1   111.0400475 552.288000
   1943   1947   1959     1   111.0400475 552.288000
   1943   1950   1953     1   111.0400475 552.288000
   1944   1943   1947     1   112.3500484 533.878400
   1944   1943   1950     1   112.3500484 533.878400
   1944   1956   1968     1   111.5100476 526.347200
   1947   1943   1950     1   112.3500484 533.878400
   1947   1959   1965     1   111.5100476 526.347200
   1950   1953   1962     1   111.5100476 526.347200
   1953   1962   1971     1   107.9700462 569.024000
   1956   1968   4089     1   107.9700462 569.024000
   1959   1965   4058     1   107.9700462 569.024000
   1965   4058   4028     1   112.4800480 524.673600
   1968   4089   4059     1   112.4800480 524.673600
   1972   1973   1985     1   111.0400475 552.288000
   1972   1976   1988     1   111.0400475 552.288000
   1972   1979   1982     1   111.0400475 552.288000
   1973   1972   1976     1   112.3500484 533.878400
   1973   1972   1979     1   112.3500484 533.878400
   1973   1985   1997     1   111.5100476 526.347200
   1976   1972   1979     1   112.3500484 533.878400
   1976   1988   1994     1   111.5100476 526.347200
   1979   1982   1991     1   111.5100476 526.347200
   1982   1991   2000     1   107.9700462 569.024000
   1985   1997   4151     1   107.9700462 569.024000
   1988   1994   4120     1   107.9700462 569.024000
   1994   4120   4090     1   112.4800480 524.673600
   1997   4151   4121     1   112.4800480 524.673600
   2001   2002   2014     1   111.0400475 552.288000
   2001   2005   2017     1   111.0400475 552.288000
   2001   2008   2011     1   111.0400475 552.288000
   2002   2001   2005     1   112.3500484 533.878400
   2002   2001   2008     1   112.3500484 533.878400
   2002   2014   2026     1   111.5100476 526.347200
   2005   2001   2008     1   112.3500484 533.878400
   2005   2017   2023     1   111.5100476 526.347200
   2008   2011   2020     1   111.5100476 526.347200
   2011   2020   2029     1   107.9700462 569.024000
   2014   2026   4213     1   107.9700462 569.024000
   2017   2023   4182     1   107.9700462 569.024000
   2023   4182   4152     1   112.4800480 524.673600
   2026   4213   4183     1   112.4800480 524.673600
   2030   2031   2043     1   111.0400475 552.288000
   2030   2034   2046     1   111.0400475 552.288000
   2030   2037   2040     1   111.0400475 552.288000
   2031   2030   2034     1   112.3500484 533.878400
   2031   2030   2037     1   112.3500484 533.878400
   2031   2043   2055     1   111.5100476 526.347200
   2034   2030   2037     1   112.3500484 533.878400
   2034   2046   2052     1   111.5100476 526.347200
   2037   2040   2049     1   111.5100476 526.347200
   2040   2049   2058     1   107.9700462 569.024000
   2043   2055   4275     1   107.9700462 569.024000
   2046   2052   4244     1   107.9700462 569.024000
   2052   4244   4214     1   112.4800480 524.673600
   2055   4275   4245     1   112.4800480 524.673600
   2059   2060   2072     1   111.0400475 552.288000
   2059   2063   2075     1   111.0400475 552.288000
   2059   2066   2069     1   111.0400475 552.288000
   2060   2059   2063     1   112.3500484 533.878400
   2060   2059   2066     1   112.3500484 533.878400
   2060   2072   2084     1   111.5100476 526.347200
   2063   2059   2066     1   112.3500484 533.878400
   2063   2075   2081     1   111.5100476 526.347200
   2066   2069   2078     1   111.5100476 526.347200
   2069   2078   2087     1   107.9700462 569.024000
   2072   2084   4337     1   107.9700462 569.024000
   2075   2081   4306     1   107.9700462 569.024000
   2081   4306   4276     1   112.4800480 524.673600
   2084   4337   4307     1   112.4800480 524.673600
   2088   2089   2101     1   111.0400475 552.288000
   2088   2092   2104     1   111.0400475 552.288000
   2088   2095   2098     1   111.0400475 552.288000
   2089   2088   2092     1   112.3500484 533.878400
   2089   2088   2095     1   112.3500484 533.878400
   2089   2101   2113     1   111.5100476 526.347200
   2092   2088   2095     1   112.3500484 533.878400
   2092   2104   2110     1   111.5100476 526.347200
   2095   2098   2107     1   111.5100476 526.347200
   2098   2107   2116     1   107.9700462 569.024000
   2101   2113   4399     1   107.9700462 569.024000
   2104   2110   4368     1   107.9700462 569.024000
   2110   4368   4338     1   112.4800480 524.673600
   2113   4399   4369     1   112.4800480 524.673600
   2117   2118   2130     1   111.0400475 552.288000
   2117   2121   2133     1   111.0400475 552.288000
   2117   2124   2127     1   111.0400475 552.288000
   2118   2117   2121     1   112.3500484 533.878400
   2118   2117   2124     1   112.3500484 533.878400
   2118   2130   2142     1   111.5100476 526.347200
   2121   2117   2124     1   112.3500484 533.878400
   2121   2133   2139     1   111.5100476 526.347200
   2124   2127   2136     1   111.5100476 526.347200
   2127   2136   2145     1   107.9700462 569.024000
   2130   2142   4461     1   107.9700462 569.024000
   2133   2139   4430     1   107.9700462 569.024000
   2139   4430   4400     1   112.4800480 524.673600
   2142   4461   4431     1   112.4800480 524.673600
   2146   2147   2159     1   111.0400475 552.288000
   2146   2150   2162     1   111.0400475 552.288000
   2146   2153   2156     1   111.0400475 552.288000
   2147   2146   2150     1   112.3500484 533.878400
   2147   2146   2153     1   112.3500484 533.878400
   2147   2159   2171     1   111.5100476 526.347200
   2150   2146   2153     1   112.3500484 533.878400
   2150   2162   2168     1   111.5100476 526.347200
   2153   2156   2165     1   111.5100476 526.347200
   2156   2165   2174     1   107.9700462 569.024000
   2159   2171   4523     1   107.9700462 569.024000
   2162   2168   4492     1   107.9700462 569.024000
   2168   4492   4462     1   112.4800480 524.673600
   2171   4523   4493     1   112.4800480 524.673600
   2175   2176   2188     1   111.0400475 552.288000
   2175   2179   2191     1   111.0400475 552.288000
   2175   2182   2185     1   111.0400475 552.288000
   2176   2175   2179     1   112.3500484 533.878400
   2176   2175   2182     1   112.3500484 533.878400
   2176   2188   2200     1   111.5100476 526.347200
   2179   2175   2182     1   112.3500484 533.878400
   2179   2191   2197     1   111.5100476 526.347200
   2182   2185   2194     1   111.5100476 526.347200
   2185   2194   2203     1   107.9700462 569.024000
   2188   2200   4585     1   107.9700462 569.024000
   2191   2197   4554     1   107.9700462 569.024000
   2197   4554   4524     1   112.4800480 524.673600
   2200   4585   4555     1   112.4800480 524.673600
   2204   2205   2217     1   111.0400475 552.288000
   2204   2208   2220     1   111.0400475 552.288000
   2204   2211   2214     1   111.0400475 552.288000
   2205   2204   2208     1   112.3500484 533.878400
   2205   2204   2211     1   112.3500484 533.878400
   2205   2217   2229     1   111.5100476 526.347200
   2208   2204   2211     1   112.3500484 533.878400
   2208   2220   2226     1   111.5100476 526.347200
   2211   2214   2223     1   111.5100476 526.347200
   2214   2223   2232     1   107.9700462 569.024000
   2217   2229   4647     1   107.9700462 569.024000
   2220   2226   4616     1   107.9700462 569.024000
   2226   4616   4586     1   112.4800480 524.673600
   2229   4647   4617     1   112.4800480 524.673600
   2233   2234   2246     1   111.0400475 552.288000
   2233   2237   2249     1   111.0400475 552.288000
   2233   2240   2243     1   111.0400475 552.288000
   2234   2233   2237     1   112.3500484 533.878400
   2234   2233   2240     1   112.3500484 533.878400
   2234   2246   2258     1   111.5100476 526.347200
   2237   2233   2240     1   112.3500484 533.878400
   2237   2249   2255     1   111.5100476 526.347200
   2240   2243   2252     1   111.5100476 526.347200
   2243   2252   2261     1   107.9700462 569.024000
   2246   2258   4709     1   107.9700462 569.024000
   2249   2255   4678     1   107.9700462 569.024000
   2255   4678   4648     1   112.4800480 524.673600
   2258   4709   4679     1   112.4800480 524.673600
   2262   2263   2275     1   111.0400475 552.288000
   2262   2266   2278     1   111.0400475 552.288000
   2262   2269   2272     1   111.0400475 552.288000
   2263   2262   2266     1   112.3500484 533.878400
   2263   2262   2269     1   112.3500484 533.878400
   2263   2275   2287     1   111.5100476 526.347200
   2266   2262   2269     1   112.3500484 533.878400
   2266   2278   2284     1   111.5100476 526.347200
   2269   2272   2281     1   111.5100476 526.347200
   2272   2281   2290     1   107.9700462 569.024000
   2275   2287   4771     1   107.9700462 569.024000
   2278   2284   4740     1   107.9700462 569.024000
   2284   4740   4710     1   112.4800480 524.673600
   2287   4771   4741     1   112.4800480 524.673600
   2291   2292   2304     1   111.0400475 552.288000
   2291   2295   2307     1   111.0400475 552.288000
   2291   2298   2301     1   111.0400475 552.288000
   2292   2291   2295     1   112.3500484 533.878400
   2292   2291   2298     1   112.3500484 533.878400
   2292   2304   2316     1   111.5100476 526.347200
   2295   2291   2298     1   112.3500484 533.878400
   2295   2307   2313     1   111.5100476 526.347200
   2298   2301   2310     1   111.5100476 526.347200
   2301   2310   2319     1   107.9700462 569.024000
   2304   2316   4833     1   107.9700462 569.024000
   2307   2313   4802     1   107.9700462 569.024000
   2313   4802   4772     1   112.4800480 524.673600
   2316   4833   4803     1   112.4800480 524.673600
   2320   2321   2333     1   111.0400475 552.288000
   2320   2324   2336     1   111.0400475 552.288000
   2320   2327   2330     1   111.0400475 552.288000
   2321   2320   2324     1   112.3500484 533.878400
   2321   2320   2327     1   112.3500484 533.878400
   2321   2333   2345     1   111.5100476 526.347200
   2324   2320   2327     1   112.3500484 533.878400
   2324   2336   2342     1   111.5100476 526.347200
   2327   2330   2339     1   111.5100476 526.347200
   2330   2339   2348     1   107.9700462 569.024000
   2333   2345   4895     1   107.9700462 569.024000
   2336   2342   4864     1   107.9700462 569.024000
   2342   4864   4834     1   112.4800480 524.673600
   2345   4895   4865     1   112.4800480 524.673600
   2349   2350   2362     1   111.0400475 552.288000
   2349   2353   2365     1   111.0400475 552.288000
   2349   2356   2359     1   111.0400475 552.288000
   2350   2349   2353     1   112.3500484 533.878400
   2350   2349   2356     1   112.3500484 533.878400
   2350   2362   2374     1   111.5100476 526.347200
   2353   2349   2356     1   112.3500484 533.878400
   2353   2365   2371     1   111.5100476 526.347200
   2356   2359   2368     1   111.5100476 526.347200
   2359   2368   2377     1   107.9700462 569.024000
   2362   2374   4957     1   107.9700462 569.024000
   2365   2371   4926     1   107.9700462 569.024000
   2371   4926   4896     1   112.4800480 524.673600
   2374   4957   4927     1   112.4800480 524.673600
   2378   2379   2391     1   111.0400475 552.288000
   2378   2382   2394     1   111.0400475 552.288000
   2378   2385   2388     1   111.0400475 552.288000
   2379   2378   2382     1   112.3500484 533.878400
   2379   2378   2385     1   112.3500484 533.878400
   2379   2391   2403     1   111.5100476 526.347200
   2382   2378   2385     1   112.3500484 533.878400
   2382   2394   2400     1   111.5100476 526.347200
   2385   2388   2397     1   111.5100476 526.347200
   2388   2397   2406     1   107.9700462 569.024000
   2391   2403   5019     1   107.9700462 569.024000
   2394   2400   4988     1   107.9700462 569.024000
   2400   4988   4958     1   112.4800480 524.673600
   2403   5019   4989     1   112.4800480 524.673600
   2407   2408   2420     1   111.0400475 552.288000
   2407   2411   2423     1   111.0400475 552.288000
   2407   2414   2417     1   111.0400475 552.288000
   2408   2407   2411     1   112.3500484 533.878400
   2408   2407   2414     1   112.3500484 533.878400
   2408   2420   2432     1   111.5100476 526.347200
   2411   2407   2414     1   112.3500484 533.878400
   2411   2423   2429     1   111.5100476 526.347200
   2414   2417   2426     1   111.5100476 526.347200
   2417   2426   2435     1   107.9700462 569.024000
   2420   2432   5081     1   107.9700462 569.024000
   2423   2429   5050     1   107.9700462 569.024000
   2429   5050   5020     1   112.4800480 524.673600
   2432   5081   5051     1   112.4800480 524.673600
   2436   2437   2449     1   111.0400475 552.288000
   2436   2440   2452     1   111.0400475 552.288000
   2436   2443   2446     1   111.0400475 552.288000
   2437   2436   2440     1   112.3500484 533.878400
   2437   2436   2443     1   112.3500484 533.878400
   2437   2449   2461     1   111.5100476 526.347200
   2440   2436   2443     1   112.3500484 533.878400
   2440   2452   2458     1   111.5100476 526.347200
   2443   2446   2455     1   111.5100476 526.347200
   2446   2455   2464     1   107.9700462 569.024000
   2449   2461   5143     1   107.9700462 569.024000
   2452   2458   5112     1   107.9700462 569.024000
   2458   5112   5082     1   112.4800480 524.673600
   2461   5143   5113     1   112.4800480 524.673600
   2465   2466   2478     1   111.0400475 552.288000
   2465   2469   2481     1   111.0400475 552.288000
   2465   2472   2475     1   111.0400475 552.288000
   2466   2465   2469     1   112.3500484 533.878400
   2466   2465   2472     1   112.3500484 533.878400
   2466   2478   2490     1   111.5100476 526.347200
   2469   2465   2472     1   112.3500484 533.878400
   2469   2481   2487     1   111.5100476 526.347200
   2472   2475   2484     1   111.5100476 526.347200
   2475   2484   2493     1   107.9700462 569.024000
   2478   2490   5205     1   107.9700462 569.024000
   2481   2487   5174     1   107.9700462 569.024000
   2487   5174   5144     1   112.4800480 524.673600
   2490   5205   5175     1   112.4800480 524.673600
   2494   2495   2507     1   111.0400475 552.288000
   2494   2498   2510     1   111.0400475 552.288000
   2494   2501   2504     1   111.0400475 552.288000
   2495   2494   2498     1   112.3500484 533.878400
   2495   2494   2501     1   112.3500484 533.878400
   2495   2507   2519     1   111.5100476 526.347200
   2498   2494   2501     1   112.3500484 533.878400
   2498   2510   2516     1   111.5100476 526.347200
   2501   2504   2513     1   111.5100476 526.347200
   2504   2513   2522     1   107.9700462 569.024000
   2507   2519   5267     1   107.9700462 569.024000
   2510   2516   5236     1   107.9700462 569.024000
   2516   5236   5206     1   112.4800480 524.673600
   2519   5267   5237     1   112.4800480 524.673600
   2523   2524   2536     1   111.0400475 552.288000
   2523   2527   2539     1   111.0400475 552.288000
   2523   2530   2533     1   111.0400475 552.288000
   2524   2523   2527     1   112.3500484 533.878400
   2524   2523   2530     1   112.3500484 533.878400
   2524   2536   2548     1   111.5100476 526.347200
   2527   2523   2530     1   112.3500484 533.878400
   2527   2539   2545     1   111.5100476 526.347200
   2530   2533   2542     1   111.5100476 526.347200
   2533   2542   2551     1   107.9700462 569.024000
   2536   2548   5329     1   107.9700462 569.024000
   2539   2545   5298     1   107.9700462 569.024000
   2545   5298   5268     1   112.4800480 524.673600
   2548   5329   5299     1   112.4800480 524.673600
   2552   2553   2565     1   111.0400475 552.288000
   2552   2556   2568     1   111.0400475 552.288000
   2552   2559   2562     1   111.0400475 552.288000
   2553   2552   2556     1   112.3500484 533.878400
   2553   2552   2559     1   112.3500484 533.878400
   2553   2565   2577     1   111.5100476 526.347200
   2556   2552   2559     1   112.3500484 533.878400
   2556   2568   2574     1   111.5100476 526.347200
   2559   2562   2571     1   111.5100476 526.347200
   2562   2571   2580     1   107.9700462 569.024000
   2565   2577   5391     1   107.9700462 569.024000
   2568   2574   5360     1   107.9700462 569.024000
   2574   5360   5330     1   112.4800480 524.673600
   2577   5391   5361     1   112.4800480 524.673600
   2581   2582   2594     1   111.0400475 552.288000
   2581   2585   2597     1   111.0400475 552.288000
   2581   2588   2591     1   111.0400475 552.288000
   2582   2581   2585     1   112.3500484 533.878400
   2582   2581   2588     1   112.3500484 533.878400
   2582   2594   2606     1   111.5100476 526.347200
   2585   2581   2588     1   112.3500484 533.878400
   2585   2597   2603     1   111.5100476 526.347200
   2588   2591   2600     1   111.5100476 526.347200
   2591   2600   2609     1   107.9700462 569.024000
   2594   2606   5453     1   107.9700462 569.024000
   2597   2603   5422     1   107.9700462 569.024000
   2603   5422   5392     1   112.4800480 524.673600
   2606   5453   5423     1   112.4800480 524.673600
   2610   2611   2623     1   111.0400475 552.288000
   2610   2614   2626     1   111.0400475 552.288000
   2610   2617   2620     1   111.0400475 552.288000
   2611   2610   2614     1   112.3500484 533.878400
   2611   2610   2617     1   112.3500484 533.878400
   2611   2623   2635     1   111.5100476 526.347200
   2614   2610   2617     1   112.3500484 533.878400
   2614   2626   2632     1   111.5100476 526.347200
   2617   2620   2629     1   111.5100476 526.347200
   2620   2629   2638     1   107.9700462 569.024000
   2623   2635   5515     1   107.9700462 569.024000
   2626   2632   5484     1   107.9700462 569.024000
   2632   5484   5454     1   112.4800480 524.673600
   2635   5515   5485     1   112.4800480 524.673600
   2639   2640   2652     1   111.0400475 552.288000
   2639   2643   2655     1   111.0400475 552.288000
   2639   2646   2649     1   111.0400475 552.288000
   2640   2639   2643     1   112.3500484 533.878400
   2640   2639   2646     1   112.3500484 533.878400
   2640   2652   2664     1   111.5100476 526.347200
   2643   2639   2646     1   112.3500484 533.878400
   2643   2655   2661     1   111.5100476 526.347200
   2646   2649   2658     1   111.5100476 526.347200
   2649   2658   2667     1   107.9700462 569.024000
   2652   2664   5577     1   107.9700462 569.024000
   2655   2661   5546     1   107.9700462 569.024000
   2661   5546   5516     1   112.4800480 524.673600
   2664   5577   5547     1   112.4800480 524.673600
   2668   2669   2681     1   111.0400475 552.288000
   2668   2672   2684     1   111.0400475 552.288000
   2668   2675   2678     1   111.0400475 552.288000
   2669   2668   2672     1   112.3500484 533.878400
   2669   2668   2675     1   112.3500484 533.878400
   2669   2681   2693     1   111.5100476 526.347200
   2672   2668   2675     1   112.3500484 533.878400
   2672   2684   2690     1   111.5100476 526.347200
   2675   2678   2687     1   111.5100476 526.347200
   2678   2687   2696     1   107.9700462 569.024000
   2681   2693   5639     1   107.9700462 569.024000
   2684   2690   5608     1   107.9700462 569.024000
   2690   5608   5578     1   112.4800480 524.673600
   2693   5639   5609     1   112.4800480 524.673600
   2697   2698   2710     1   111.0400475 552.288000
   2697   2701   2713     1   111.0400475 552.288000
   2697   2704   2707     1   111.0400475 552.288000
   2698   2697   2701     1   112.3500484 533.878400
   2698   2697   2704     1   112.3500484 533.878400
   2698   2710   2722     1   111.5100476 526.347200
   2701   2697   2704     1   112.3500484 533.878400
   2701   2713   2719     1   111.5100476 526.347200
   2704   2707   2716     1   111.5100476 526.347200
   2707   2716   2725     1   107.9700462 569.024000
   2710   2722   5701     1   107.9700462 569.024000
   2713   2719   5670     1   107.9700462 569.024000
   2719   5670   5640     1   112.4800480 524.673600
   2722   5701   5671     1   112.4800480 524.673600
   2726   2729   2732     1   111.5100476 526.347200
   2729   2726   2756     1   107.9700462 569.024000
   2729   2732   2735     1   111.0400475 552.288000
   2732   2735   2736     1   112.3500484 533.878400
   2732   2735   2746     1   112.3500484 533.878400
   2735   2736   2739     1   111.0400475 552.288000
   2735   2746   2749     1   111.0400475 552.288000
   2736   2735   2746     1   112.3500484 533.878400
   2736   2739   2742     1   111.0400475 529.694400
   2739   2742   2743     1   123.2000528 564.003200
   2739   2742   2744     1   112.7300484 572.371200
   2743   2742   2744     1   122.1000523 635.131200
   2746   2749   2752     1   111.0400475 529.694400
   2749   2752   2753     1   123.2000528 564.003200
   2749   2752   2754     1   112.7300484 572.371200
   2753   2752   2754     1   122.1000523 635.131200
   2757   2760   2763     1   111.5100476 526.347200
   2760   2763   2766     1   111.0400475 552.288000
   2760   2757   2787     1   107.9700462 569.024000
   2763   2766   2767     1   112.3500484 533.878400
   2763   2766   2777     1   112.3500484 533.878400
   2766   2767   2770     1   111.0400475 552.288000
   2766   2777   2780     1   111.0400475 552.288000
   2767   2770   2773     1   111.0400475 529.694400
   2767   2766   2777     1   112.3500484 533.878400
   2770   2773   2774     1   123.2000528 564.003200
   2770   2773   2775     1   112.7300484 572.371200
   2774   2773   2775     1   122.1000523 635.131200
   2777   2780   2783     1   111.0400475 529.694400
   2780   2783   2784     1   123.2000528 564.003200
   2780   2783   2785     1   112.7300484 572.371200
   2784   2783   2785     1   122.1000523 635.131200
   2788   2791   2794     1   111.5100476 526.347200
   2791   2788   2818     1   107.9700462 569.024000
   2791   2794   2797     1   111.0400475 552.288000
   2794   2797   2798     1   112.3500484 533.878400
   2794   2797   2808     1   112.3500484 533.878400
   2797   2798   2801     1   111.0400475 552.288000
   2797   2808   2811     1   111.0400475 552.288000
   2798   2797   2808     1   112.3500484 533.878400
   2798   2801   2804     1   111.0400475 529.694400
   2801   2804   2805     1   123.2000528 564.003200
   2801   2804   2806     1   112.7300484 572.371200
   2805   2804   2806     1   122.1000523 635.131200
   2808   2811   2814     1   111.0400475 529.694400
   2811   2814   2815     1   123.2000528 564.003200
   2811   2814   2816     1   112.7300484 572.371200
   2815   2814   2816     1   122.1000523 635.131200
   2819   2822   2825     1   111.5100476 526.347200
   2822   2825   2828     1   111.0400475 552.288000
   2822   2819   2849     1   107.9700462 569.024000
   2825   2828   2829     1   112.3500484 533.878400
   2825   2828   2839     1   112.3500484 533.878400
   2828   2829   2832     1   111.0400475 552.288000
   2828   2839   2842     1   111.0400475 552.288000
   2829   2832   2835     1   111.0400475 529.694400
   2829   2828   2839     1   112.3500484 533.878400
   2832   2835   2836     1   123.2000528 564.003200
   2832   2835   2837     1   112.7300484 572.371200
   2836   2835   2837     1   122.1000523 635.131200
   2839   2842   2845     1   111.0400475 529.694400
   2842   2845   2846     1   123.2000528 564.003200
   2842   2845   2847     1   112.7300484 572.371200
   2846   2845   2847     1   122.1000523 635.131200
   2850   2853   2856     1   111.5100476 526.347200
   2853   2850   2880     1   107.9700462 569.024000
   2853   2856   2859     1   111.0400475 552.288000
   2856   2859   2860     1   112.3500484 533.878400
   2856   2859   2870     1   112.3500484 533.878400
   2859   2860   2863     1   111.0400475 552.288000
   2859   2870   2873     1   111.0400475 552.288000
   2860   2859   2870     1   112.3500484 533.878400
   2860   2863   2866     1   111.0400475 529.694400
   2863   2866   2867     1   123.2000528 564.003200
   2863   2866   2868     1   112.7300484 572.371200
   2867   2866   2868     1   122.1000523 635.131200
   2870   2873   2876     1   111.0400475 529.694400
   2873   2876   2877     1   123.2000528 564.003200
   2873   2876   2878     1   112.7300484 572.371200
   2877   2876   2878     1   122.1000523 635.131200
   2881   2884   2887     1   111.5100476 526.347200
   2884   2887   2890     1   111.0400475 552.288000
   2884   2881   2911     1   107.9700462 569.024000
   2887   2890   2891     1   112.3500484 533.878400
   2887   2890   2901     1   112.3500484 533.878400
   2890   2891   2894     1   111.0400475 552.288000
   2890   2901   2904     1   111.0400475 552.288000
   2891   2894   2897     1   111.0400475 529.694400
   2891   2890   2901     1   112.3500484 533.878400
   2894   2897   2898     1   123.2000528 564.003200
   2894   2897   2899     1   112.7300484 572.371200
   2898   2897   2899     1   122.1000523 635.131200
   2901   2904   2907     1   111.0400475 529.694400
   2904   2907   2908     1   123.2000528 564.003200
   2904   2907   2909     1   112.7300484 572.371200
   2908   2907   2909     1   122.1000523 635.131200
   2912   2915   2918     1   111.5100476 526.347200
   2915   2912   2942     1   107.9700462 569.024000
   2915   2918   2921     1   111.0400475 552.288000
   2918   2921   2922     1   112.3500484 533.878400
   2918   2921   2932     1   112.3500484 533.878400
   2921   2922   2925     1   111.0400475 552.288000
   2921   2932   2935     1   111.0400475 552.288000
   2922   2921   2932     1   112.3500484 533.878400
   2922   2925   2928     1   111.0400475 529.694400
   2925   2928   2929     1   123.2000528 564.003200
   2925   2928   2930     1   112.7300484 572.371200
   2929   2928   2930     1   122.1000523 635.131200
   2932   2935   2938     1   111.0400475 529.694400
   2935   2938   2939     1   123.2000528 564.003200
   2935   2938   2940     1   112.7300484 572.371200
   2939   2938   2940     1   122.1000523 635.131200
   2943   2946   2949     1   111.5100476 526.347200
   2946   2949   2952     1   111.0400475 552.288000
   2946   2943   2973     1   107.9700462 569.024000
   2949   2952   2953     1   112.3500484 533.878400
   2949   2952   2963     1   112.3500484 533.878400
   2952   2953   2956     1   111.0400475 552.288000
   2952   2963   2966     1   111.0400475 552.288000
   2953   2956   2959     1   111.0400475 529.694400
   2953   2952   2963     1   112.3500484 533.878400
   2956   2959   2960     1   123.2000528 564.003200
   2956   2959   2961     1   112.7300484 572.371200
   2960   2959   2961     1   122.1000523 635.131200
   2963   2966   2969     1   111.0400475 529.694400
   2966   2969   2970     1   123.2000528 564.003200
   2966   2969   2971     1   112.7300484 572.371200
   2970   2969   2971     1   122.1000523 635.131200
   2974   2977   2980     1   111.5100476 526.347200
   2977   2974   3004     1   107.9700462 569.024000
   2977   2980   2983     1   111.0400475 552.288000
   2980   2983   2984     1   112.3500484 533.878400
   2980   2983   2994     1   112.3500484 533.878400
   2983   2984   2987     1   111.0400475 552.288000
   2983   2994   2997     1   111.0400475 552.288000
   2984   2983   2994     1   112.3500484 533.878400
   2984   2987   2990     1   111.0400475 529.694400
   2987   2990   2991     1   123.2000528 564.003200
   2987   2990   2992     1   112.7300484 572.371200
   2991   2990   2992     1   122.1000523 635.131200
   2994   2997   3000     1   111.0400475 529.694400
   2997   3000   3001     1   123.2000528 564.003200
   2997   3000   3002     1   112.7300484 572.371200
   3001   3000   3002     1   122.1000523 635.131200
   3005   3008   3011     1   111.5100476 526.347200
   3008   3011   3014     1   111.0400475 552.288000
   3008   3005   3035     1   107.9700462 569.024000
   3011   3014   3015     1   112.3500484 533.878400
   3011   3014   3025     1   112.3500484 533.878400
   3014   3015   3018     1   111.0400475 552.288000
   3014   3025   3028     1   111.0400475 552.288000
   3015   3018   3021     1   111.0400475 529.694400
   3015   3014   3025     1   112.3500484 533.878400
   3018   3021   3022     1   123.2000528 564.003200
   3018   3021   3023     1   112.7300484 572.371200
   3022   3021   3023     1   122.1000523 635.131200
   3025   3028   3031     1   111.0400475 529.694400
   3028   3031   3032     1   123.2000528 564.003200
   3028   3031   3033     1   112.7300484 572.371200
   3032   3031   3033     1   122.1000523 635.131200
   3036   3039   3042     1   111.5100476 526.347200
   3039   3036   3066     1   107.9700462 569.024000
   3039   3042   3045     1   111.0400475 552.288000
   3042   3045   3046     1   112.3500484 533.878400
   3042   3045   3056     1   112.3500484 533.878400
   3045   3046   3049     1   111.0400475 552.288000
   3045   3056   3059     1   111.0400475 552.288000
   3046   3045   3056     1   112.3500484 533.878400
   3046   3049   3052     1   111.0400475 529.694400
   3049   3052   3053     1   123.2000528 564.003200
   3049   3052   3054     1   112.7300484 572.371200
   3053   3052   3054     1   122.1000523 635.131200
   3056   3059   3062     1   111.0400475 529.694400
   3059   3062   3063     1   123.2000528 564.003200
   3059   3062   3064     1   112.7300484 572.371200
   3063   3062   3064     1   122.1000523 635.131200
   3067   3070   3073     1   111.5100476 526.347200
   3070   3073   3076     1   111.0400475 552.288000
   3070   3067   3097     1   107.9700462 569.024000
   3073   3076   3077     1   112.3500484 533.878400
   3073   3076   3087     1   112.3500484 533.878400
   3076   3077   3080     1   111.0400475 552.288000
   3076   3087   3090     1   111.0400475 552.288000
   3077   3080   3083     1   111.0400475 529.694400
   3077   3076   3087     1   112.3500484 533.878400
   3080   3083   3084     1   123.2000528 564.003200
   3080   3083   3085     1   112.7300484 572.371200
   3084   3083   3085     1   122.1000523 635.131200
   3087   3090   3093     1   111.0400475 529.694400
   3090   3093   3094     1   123.2000528 564.003200
   3090   3093   3095     1   112.7300484 572.371200
   3094   3093   3095     1   122.1000523 635.131200
   3098   3101   3104     1   111.5100476 526.347200
   3101   3098   3128     1   107.9700462 569.024000
   3101   3104   3107     1   111.0400475 552.288000
   3104   3107   3108     1   112.3500484 533.878400
   3104   3107   3118     1   112.3500484 533.878400
   3107   3108   3111     1   111.0400475 552.288000
   3107   3118   3121     1   111.0400475 552.288000
   3108   3107   3118     1   112.3500484 533.878400
   3108   3111   3114     1   111.0400475 529.694400
   3111   3114   3115     1   123.2000528 564.003200
   3111   3114   3116     1   112.7300484 572.371200
   3115   3114   3116     1   122.1000523 635.131200
   3118   3121   3124     1   111.0400475 529.694400
   3121   3124   3125     1   123.2000528 564.003200
   3121   3124   3126     1   112.7300484 572.371200
   3125   3124   3126     1   122.1000523 635.131200
   3129   3132   3135     1   111.5100476 526.347200
   3132   3135   3138     1   111.0400475 552.288000
   3132   3129   3159     1   107.9700462 569.024000
   3135   3138   3139     1   112.3500484 533.878400
   3135   3138   3149     1   112.3500484 533.878400
   3138   3139   3142     1   111.0400475 552.288000
   3138   3149   3152     1   111.0400475 552.288000
   3139   3142   3145     1   111.0400475 529.694400
   3139   3138   3149     1   112.3500484 533.878400
   3142   3145   3146     1   123.2000528 564.003200
   3142   3145   3147     1   112.7300484 572.371200
   3146   3145   3147     1   122.1000523 635.131200
   3149   3152   3155     1   111.0400475 529.694400
   3152   3155   3156     1   123.2000528 564.003200
   3152   3155   3157     1   112.7300484 572.371200
   3156   3155   3157     1   122.1000523 635.131200
   3160   3163   3166     1   111.5100476 526.347200
   3163   3160   3190     1   107.9700462 569.024000
   3163   3166   3169     1   111.0400475 552.288000
   3166   3169   3170     1   112.3500484 533.878400
   3166   3169   3180     1   112.3500484 533.878400
   3169   3170   3173     1   111.0400475 552.288000
   3169   3180   3183     1   111.0400475 552.288000
   3170   3169   3180     1   112.3500484 533.878400
   3170   3173   3176     1   111.0400475 529.694400
   3173   3176   3177     1   123.2000528 564.003200
   3173   3176   3178     1   112.7300484 572.371200
   3177   3176   3178     1   122.1000523 635.131200
   3180   3183   3186     1   111.0400475 529.694400
   3183   3186   3187     1   123.2000528 564.003200
   3183   3186   3188     1   112.7300484 572.371200
   3187   3186   3188     1   122.1000523 635.131200
   3191   3194   3197     1   111.5100476 526.347200
   3194   3197   3200     1   111.0400475 552.288000
   3194   3191   3221     1   107.9700462 569.024000
   3197   3200   3201     1   112.3500484 533.878400
   3197   3200   3211     1   112.3500484 533.878400
   3200   3201   3204     1   111.0400475 552.288000
   3200   3211   3214     1   111.0400475 552.288000
   3201   3204   3207     1   111.0400475 529.694400
   3201   3200   3211     1   112.3500484 533.878400
   3204   3207   3208     1   123.2000528 564.003200
   3204   3207   3209     1   112.7300484 572.371200
   3208   3207   3209     1   122.1000523 635.131200
   3211   3214   3217     1   111.0400475 529.694400
   3214   3217   3218     1   123.2000528 564.003200
   3214   3217   3219     1   112.7300484 572.371200
   3218   3217   3219     1   122.1000523 635.131200
   3222   3225   3228     1   111.5100476 526.347200
   3225   3222   3252     1   107.9700462 569.024000
   3225   3228   3231     1   111.0400475 552.288000
   3228   3231   3232     1   112.3500484 533.878400
   3228   3231   3242     1   112.3500484 533.878400
   3231   3232   3235     1   111.0400475 552.288000
   3231   3242   3245     1   111.0400475 552.288000
   3232   3231   3242     1   112.3500484 533.878400
   3232   3235   3238     1   111.0400475 529.694400
   3235   3238   3239     1   123.2000528 564.003200
   3235   3238   3240     1   112.7300484 572.371200
   3239   3238   3240     1   122.1000523 635.131200
   3242   3245   3248     1   111.0400475 529.694400
   3245   3248   3249     1   123.2000528 564.003200
   3245   3248   3250     1   112.7300484 572.371200
   3249   3248   3250     1   122.1000523 635.131200
   3253   3256   3259     1   111.5100476 526.347200
   3256   3259   3262     1   111.0400475 552.288000
   3256   3253   3283     1   107.9700462 569.024000
   3259   3262   3263     1   112.3500484 533.878400
   3259   3262   3273     1   112.3500484 533.878400
   3262   3263   3266     1   111.0400475 552.288000
   3262   3273   3276     1   111.0400475 552.288000
   3263   3266   3269     1   111.0400475 529.694400
   3263   3262   3273     1   112.3500484 533.878400
   3266   3269   3270     1   123.2000528 564.003200
   3266   3269   3271     1   112.7300484 572.371200
   3270   3269   3271     1   122.1000523 635.131200
   3273   3276   3279     1   111.0400475 529.694400
   3276   3279   3280     1   123.2000528 564.003200
   3276   3279   3281     1   112.7300484 572.371200
   3280   3279   3281     1   122.1000523 635.131200
   3284   3287   3290     1   111.5100476 526.347200
   3287   3284   3314     1   107.9700462 569.024000
   3287   3290   3293     1   111.0400475 552.288000
   3290   3293   3294     1   112.3500484 533.878400
   3290   3293   3304     1   112.3500484 533.878400
   3293   3294   3297     1   111.0400475 552.288000
   3293   3304   3307     1   111.0400475 552.288000
   3294   3293   3304     1   112.3500484 533.878400
   3294   3297   3300     1   111.0400475 529.694400
   3297   3300   3301     1   123.2000528 564.003200
   3297   3300   3302     1   112.7300484 572.371200
   3301   3300   3302     1   122.1000523 635.131200
   3304   3307   3310     1   111.0400475 529.694400
   3307   3310   3311     1   123.2000528 564.003200
   3307   3310   3312     1   112.7300484 572.371200
   3311   3310   3312     1   122.1000523 635.131200
   3315   3318   3321     1   111.5100476 526.347200
   3318   3321   3324     1   111.0400475 552.288000
   3318   3315   3345     1   107.9700462 569.024000
   3321   3324   3325     1   112.3500484 533.878400
   3321   3324   3335     1   112.3500484 533.878400
   3324   3325   3328     1   111.0400475 552.288000
   3324   3335   3338     1   111.0400475 552.288000
   3325   3328   3331     1   111.0400475 529.694400
   3325   3324   3335     1   112.3500484 533.878400
   3328   3331   3332     1   123.2000528 564.003200
   3328   3331   3333     1   112.7300484 572.371200
   3332   3331   3333     1   122.1000523 635.131200
   3335   3338   3341     1   111.0400475 529.694400
   3338   3341   3342     1   123.2000528 564.003200
   3338   3341   3343     1   112.7300484 572.371200
   3342   3341   3343     1   122.1000523 635.131200
   3346   3349   3352     1   111.5100476 526.347200
   3349   3346   3376     1   107.9700462 569.024000
   3349   3352   3355     1   111.0400475 552.288000
   3352   3355   3356     1   112.3500484 533.878400
   3352   3355   3366     1   112.3500484 533.878400
   3355   3356   3359     1   111.0400475 552.288000
   3355   3366   3369     1   111.0400475 552.288000
   3356   3355   3366     1   112.3500484 533.878400
   3356   3359   3362     1   111.0400475 529.694400
   3359   3362   3363     1   123.2000528 564.003200
   3359   3362   3364     1   112.7300484 572.371200
   3363   3362   3364     1   122.1000523 635.131200
   3366   3369   3372     1   111.0400475 529.694400
   3369   3372   3373     1   123.2000528 564.003200
   3369   3372   3374     1   112.7300484 572.371200
   3373   3372   3374     1   122.1000523 635.131200
   3377   3380   3383     1   111.5100476 526.347200
   3380   3383   3386     1   111.0400475 552.288000
   3380   3377   3407     1   107.9700462 569.024000
   3383   3386   3387     1   112.3500484 533.878400
   3383   3386   3397     1   112.3500484 533.878400
   3386   3387   3390     1   111.0400475 552.288000
   3386   3397   3400     1   111.0400475 552.288000
   3387   3390   3393     1   111.0400475 529.694400
   3387   3386   3397     1   112.3500484 533.878400
   3390   3393   3394     1   123.2000528 564.003200
   3390   3393   3395     1   112.7300484 572.371200
   3394   3393   3395     1   122.1000523 635.131200
   3397   3400   3403     1   111.0400475 529.694400
   3400   3403   3404     1   123.2000528 564.003200
   3400   3403   3405     1   112.7300484 572.371200
   3404   3403   3405     1   122.1000523 635.131200
   3408   3411   3414     1   111.5100476 526.347200
   3411   3408   3438     1   107.9700462 569.024000
   3411   3414   3417     1   111.0400475 552.288000
   3414   3417   3418     1   112.3500484 533.878400
   3414   3417   3428     1   112.3500484 533.878400
   3417   3418   3421     1   111.0400475 552.288000
   3417   3428   3431     1   111.0400475 552.288000
   3418   3417   3428     1   112.3500484 533.878400
   3418   3421   3424     1   111.0400475 529.694400
   3421   3424   3425     1   123.2000528 564.003200
   3421   3424   3426     1   112.7300484 572.371200
   3425   3424   3426     1   122.1000523 635.131200
   3428   3431   3434     1   111.0400475 529.694400
   3431   3434   3435     1   123.2000528 564.003200
   3431   3434   3436     1   112.7300484 572.371200
   3435   3434   3436     1   122.1000523 635.131200
   3439   3442   3445     1   111.5100476 526.347200
   3442   3445   3448     1   111.0400475 552.288000
   3442   3439   3469     1   107.9700462 569.024000
   3445   3448   3449     1   112.3500484 533.878400
   3445   3448   3459     1   112.3500484 533.878400
   3448   3449   3452     1   111.0400475 552.288000
   3448   3459   3462     1   111.0400475 552.288000
   3449   3452   3455     1   111.0400475 529.694400
   3449   3448   3459     1   112.3500484 533.878400
   3452   3455   3456     1   123.2000528 564.003200
   3452   3455   3457     1   112.7300484 572.371200
   3456   3455   3457     1   122.1000523 635.131200
   3459   3462   3465     1   111.0400475 529.694400
   3462   3465   3466     1   123.2000528 564.003200
   3462   3465   3467     1   112.7300484 572.371200
   3466   3465   3467     1   122.1000523 635.131200
   3470   3473   3476     1   111.5100476 526.347200
   3473   3470   3500     1   107.9700462 569.024000
   3473   3476   3479     1   111.0400475 552.288000
   3476   3479   3480     1   112.3500484 533.878400
   3476   3479   3490     1   112.3500484 533.878400
   3479   3480   3483     1   111.0400475 552.288000
   3479   3490   3493     1   111.0400475 552.288000
   3480   3479   3490     1   112.3500484 533.878400
   3480   3483   3486     1   111.0400475 529.694400
   3483   3486   3487     1   123.2000528 564.003200
   3483   3486   3488     1   112.7300484 572.371200
   3487   3486   3488     1   122.1000523 635.131200
   3490   3493   3496     1   111.0400475 529.694400
   3493   3496   3497     1   123.2000528 564.003200
   3493   3496   3498     1   112.7300484 572.371200
   3497   3496   3498     1   122.1000523 635.131200
   3501   3504   3507     1   111.5100476 526.347200
   3504   3507   3510     1   111.0400475 552.288000
   3504   3501   3531     1   107.9700462 569.024000
   3507   3510   3511     1   112.3500484 533.878400
   3507   3510   3521     1   112.3500484 533.878400
   3510   3511   3514     1   111.0400475 552.288000
   3510   3521   3524     1   111.0400475 552.288000
   3511   3514   3517     1   111.0400475 529.694400
   3511   3510   3521     1   112.3500484 533.878400
   3514   3517   3518     1   123.2000528 564.003200
   3514   3517   3519     1   112.7300484 572.371200
   3518   3517   3519     1   122.1000523 635.131200
   3521   3524   3527     1   111.0400475 529.694400
   3524   3527   3528     1   123.2000528 564.003200
   3524   3527   3529     1   112.7300484 572.371200
   3528   3527   3529     1   122.1000523 635.131200
   3532   3535   3538     1   111.5100476 526.347200
   3535   3532   3562     1   107.9700462 569.024000
   3535   3538   3541     1   111.0400475 552.288000
   3538   3541   3542     1   112.3500484 533.878400
   3538   3541   3552     1   112.3500484 533.878400
   3541   3542   3545     1   111.0400475 552.288000
   3541   3552   3555     1   111.0400475 552.288000
   3542   3541   3552     1   112.3500484 533.878400
   3542   3545   3548     1   111.0400475 529.694400
   3545   3548   3549     1   123.2000528 564.003200
   3545   3548   3550     1   112.7300484 572.371200
   3549   3548   3550     1   122.1000523 635.131200
   3552   3555   3558     1   111.0400475 529.694400
   3555   3558   3559     1   123.2000528 564.003200
   3555   3558   3560     1   112.7300484 572.371200
   3559   3558   3560     1   122.1000523 635.131200
   3563   3566   3569     1   111.5100476 526.347200
   3566   3569   3572     1   111.0400475 552.288000
   3566   3563   3593     1   107.9700462 569.024000
   3569   3572   3573     1   112.3500484 533.878400
   3569   3572   3583     1   112.3500484 533.878400
   3572   3573   3576     1   111.0400475 552.288000
   3572   3583   3586     1   111.0400475 552.288000
   3573   3576   3579     1   111.0400475 529.694400
   3573   3572   3583     1   112.3500484 533.878400
   3576   3579   3580     1   123.2000528 564.003200
   3576   3579   3581     1   112.7300484 572.371200
   3580   3579   3581     1   122.1000523 635.131200
   3583   3586   3589     1   111.0400475 529.694400
   3586   3589   3590     1   123.2000528 564.003200
   3586   3589   3591     1   112.7300484 572.371200
   3590   3589   3591     1   122.1000523 635.131200
   3594   3597   3600     1   111.5100476 526.347200
   3597   3594   3624     1   107.9700462 569.024000
   3597   3600   3603     1   111.0400475 552.288000
   3600   3603   3604     1   112.3500484 533.878400
   3600   3603   3614     1   112.3500484 533.878400
   3603   3604   3607     1   111.0400475 552.288000
   3603   3614   3617     1   111.0400475 552.288000
   3604   3603   3614     1   112.3500484 533.878400
   3604   3607   3610     1   111.0400475 529.694400
   3607   3610   3611     1   123.2000528 564.003200
   3607   3610   3612     1   112.7300484 572.371200
   3611   3610   3612     1   122.1000523 635.131200
   3614   3617   3620     1   111.0400475 529.694400
   3617   3620   3621     1   123.2000528 564.003200
   3617   3620   3622     1   112.7300484 572.371200
   3621   3620   3622     1   122.1000523 635.131200
   3625   3628   3631     1   111.5100476 526.347200
   3628   3631   3634     1   111.0400475 552.288000
   3628   3625   3655     1   107.9700462 569.024000
   3631   3634   3635     1   112.3500484 533.878400
   3631   3634   3645     1   112.3500484 533.878400
   3634   3635   3638     1   111.0400475 552.288000
   3634   3645   3648     1   111.0400475 552.288000
   3635   3638   3641     1   111.0400475 529.694400
   3635   3634   3645     1   112.3500484 533.878400
   3638   3641   3642     1   123.2000528 564.003200
   3638   3641   3643     1   112.7300484 572.371200
   3642   3641   3643     1   122.1000523 635.131200
   3645   3648   3651     1   111.0400475 529.694400
   3648   3651   3652     1   123.2000528 564.003200
   3648   3651   3653     1   112.7300484 572.371200
   3652   3651   3653     1   122.1000523 635.131200
   3656   3659   3662     1   111.5100476 526.347200
   3659   3656   3686     1   107.9700462 569.024000
   3659   3662   3665     1   111.0400475 552.288000
   3662   3665   3666     1   112.3500484 533.878400
   3662   3665   3676     1   112.3500484 533.878400
   3665   3666   3669     1   111.0400475 552.288000
   3665   3676   3679     1   111.0400475 552.288000
   3666   3665   3676     1   112.3500484 533.878400
   3666   3669   3672     1   111.0400475 529.694400
   3669   3672   3673     1   123.2000528 564.003200
   3669   3672   3674     1   112.7300484 572.371200
   3673   3672   3674     1   122.1000523 635.131200
   3676   3679   3682     1   111.0400475 529.694400
   3679   3682   3683     1   123.2000528 564.003200
   3679   3682   3684     1   112.7300484 572.371200
   3683   3682   3684     1   122.1000523 635.131200
   3687   3690   3693     1   111.5100476 526.347200
   3690   3693   3696     1   111.0400475 552.288000
   3690   3687   3717     1   107.9700462 569.024000
   3693   3696   3697     1   112.3500484 533.878400
   3693   3696   3707     1   112.3500484 533.878400
   3696   3697   3700     1   111.0400475 552.288000
   3696   3707   3710     1   111.0400475 552.288000
   3697   3700   3703     1   111.0400475 529.694400
   3697   3696   3707     1   112.3500484 533.878400
   3700   3703   3704     1   123.2000528 564.003200
   3700   3703   3705     1   112.7300484 572.371200
   3704   3703   3705     1   122.1000523 635.131200
   3707   3710   3713     1   111.0400475 529.694400
   3710   3713   3714     1   123.2000528 564.003200
   3710   3713   3715     1   112.7300484 572.371200
   3714   3713   3715     1   122.1000523 635.131200
   3718   3721   3724     1   111.5100476 526.347200
   3721   3718   3748     1   107.9700462 569.024000
   3721   3724   3727     1   111.0400475 552.288000
   3724   3727   3728     1   112.3500484 533.878400
   3724   3727   3738     1   112.3500484 533.878400
   3727   3728   3731     1   111.0400475 552.288000
   3727   3738   3741     1   111.0400475 552.288000
   3728   3727   3738     1   112.3500484 533.878400
   3728   3731   3734     1   111.0400475 529.694400
   3731   3734   3735     1   123.2000528 564.003200
   3731   3734   3736     1   112.7300484 572.371200
   3735   3734   3736     1   122.1000523 635.131200
   3738   3741   3744     1   111.0400475 529.694400
   3741   3744   3745     1   123.2000528 564.003200
   3741   3744   3746     1   112.7300484 572.371200
   3745   3744   3746     1   122.1000523 635.131200
   3749   3752   3755     1   111.5100476 526.347200
   3752   3755   3758     1   111.0400475 552.288000
   3752   3749   3779     1   107.9700462 569.024000
   3755   3758   3759     1   112.3500484 533.878400
   3755   3758   3769     1   112.3500484 533.878400
   3758   3759   3762     1   111.0400475 552.288000
   3758   3769   3772     1   111.0400475 552.288000
   3759   3762   3765     1   111.0400475 529.694400
   3759   3758   3769     1   112.3500484 533.878400
   3762   3765   3766     1   123.2000528 564.003200
   3762   3765   3767     1   112.7300484 572.371200
   3766   3765   3767     1   122.1000523 635.131200
   3769   3772   3775     1   111.0400475 529.694400
   3772   3775   3776     1   123.2000528 564.003200
   3772   3775   3777     1   112.7300484 572.371200
   3776   3775   3777     1   122.1000523 635.131200
   3780   3783   3786     1   111.5100476 526.347200
   3783   3780   3810     1   107.9700462 569.024000
   3783   3786   3789     1   111.0400475 552.288000
   3786   3789   3790     1   112.3500484 533.878400
   3786   3789   3800     1   112.3500484 533.878400
   3789   3790   3793     1   111.0400475 552.288000
   3789   3800   3803     1   111.0400475 552.288000
   3790   3789   3800     1   112.3500484 533.878400
   3790   3793   3796     1   111.0400475 529.694400
   3793   3796   3797     1   123.2000528 564.003200
   3793   3796   3798     1   112.7300484 572.371200
   3797   3796   3798     1   122.1000523 635.131200
   3800   3803   3806     1   111.0400475 529.694400
   3803   3806   3807     1   123.2000528 564.003200
   3803   3806   3808     1   112.7300484 572.371200
   3807   3806   3808     1   122.1000523 635.131200
   3811   3814   3817     1   111.5100476 526.347200
   3814   3817   3820     1   111.0400475 552.288000
   3814   3811   3841     1   107.9700462 569.024000
   3817   3820   3821     1   112.3500484 533.878400
   3817   3820   3831     1   112.3500484 533.878400
   3820   3821   3824     1   111.0400475 552.288000
   3820   3831   3834     1   111.0400475 552.288000
   3821   3824   3827     1   111.0400475 529.694400
   3821   3820   3831     1   112.3500484 533.878400
   3824   3827   3828     1   123.2000528 564.003200
   3824   3827   3829     1   112.7300484 572.371200
   3828   3827   3829     1   122.1000523 635.131200
   3831   3834   3837     1   111.0400475 529.694400
   3834   3837   3838     1   123.2000528 564.003200
   3834   3837   3839     1   112.7300484 572.371200
   3838   3837   3839     1   122.1000523 635.131200
   3842   3845   3848     1   111.5100476 526.347200
   3845   3842   3872     1   107.9700462 569.024000
   3845   3848   3851     1   111.0400475 552.288000
   3848   3851   3852     1   112.3500484 533.878400
   3848   3851   3862     1   112.3500484 533.878400
   3851   3852   3855     1   111.0400475 552.288000
   3851   3862   3865     1   111.0400475 552.288000
   3852   3851   3862     1   112.3500484 533.878400
   3852   3855   3858     1   111.0400475 529.694400
   3855   3858   3859     1   123.2000528 564.003200
   3855   3858   3860     1   112.7300484 572.371200
   3859   3858   3860     1   122.1000523 635.131200
   3862   3865   3868     1   111.0400475 529.694400
   3865   3868   3869     1   123.2000528 564.003200
   3865   3868   3870     1   112.7300484 572.371200
   3869   3868   3870     1   122.1000523 635.131200
   3873   3876   3879     1   111.5100476 526.347200
   3876   3879   3882     1   111.0400475 552.288000
   3876   3873   3903     1   107.9700462 569.024000
   3879   3882   3883     1   112.3500484 533.878400
   3879   3882   3893     1   112.3500484 533.878400
   3882   3883   3886     1   111.0400475 552.288000
   3882   3893   3896     1   111.0400475 552.288000
   3883   3886   3889     1   111.0400475 529.694400
   3883   3882   3893     1   112.3500484 533.878400
   3886   3889   3890     1   123.2000528 564.003200
   3886   3889   3891     1   112.7300484 572.371200
   3890   3889   3891     1   122.1000523 635.131200
   3893   3896   3899     1   111.0400475 529.694400
   3896   3899   3900     1   123.2000528 564.003200
   3896   3899   3901     1   112.7300484 572.371200
   3900   3899   3901     1   122.1000523 635.131200
   3904   3907   3910     1   111.5100476 526.347200
   3907   3904   3934     1   107.9700462 569.024000
   3907   3910   3913     1   111.0400475 552.288000
   3910   3913   3914     1   112.3500484 533.878400
   3910   3913   3924     1   112.3500484 533.878400
   3913   3914   3917     1   111.0400475 552.288000
   3913   3924   3927     1   111.0400475 552.288000
   3914   3913   3924     1   112.3500484 533.878400
   3914   3917   3920     1   111.0400475 529.694400
   3917   3920   3921     1   123.2000528 564.003200
   3917   3920   3922     1   112.7300484 572.371200
   3921   3920   3922     1   122.1000523 635.131200
   3924   3927   3930     1   111.0400475 529.694400
   3927   3930   3931     1   123.2000528 564.003200
   3927   3930   3932     1   112.7300484 572.371200
   3931   3930   3932     1   122.1000523 635.131200
   3935   3938   3941     1   111.5100476 526.347200
   3938   3941   3944     1   111.0400475 552.288000
   3938   3935   3965     1   107.9700462 569.024000
   3941   3944   3945     1   112.3500484 533.878400
   3941   3944   3955     1   112.3500484 533.878400
   3944   3945   3948     1   111.0400475 552.288000
   3944   3955   3958     1   111.0400475 552.288000
   3945   3948   3951     1   111.0400475 529.694400
   3945   3944   3955     1   112.3500484 533.878400
   3948   3951   3952     1   123.2000528 564.003200
   3948   3951   3953     1   112.7300484 572.371200
   3952   3951   3953     1   122.1000523 635.131200
   3955   3958   3961     1   111.0400475 529.694400
   3958   3961   3962     1   123.2000528 564.003200
   3958   3961   3963     1   112.7300484 572.371200
   3962   3961   3963     1   122.1000523 635.131200
   3966   3969   3972     1   111.5100476 526.347200
   3969   3966   3996     1   107.9700462 569.024000
   3969   3972   3975     1   111.0400475 552.288000
   3972   3975   3976     1   112.3500484 533.878400
   3972   3975   3986     1   112.3500484 533.878400
   3975   3976   3979     1   111.0400475 552.288000
   3975   3986   3989     1   111.0400475 552.288000
   3976   3975   3986     1   112.3500484 533.878400
   3976   3979   3982     1   111.0400475 529.694400
   3979   3982   3983     1   123.2000528 564.003200
   3979   3982   3984     1   112.7300484 572.371200
   3983   3982   3984     1   122.1000523 635.131200
   3986   3989   3992     1   111.0400475 529.694400
   3989   3992   3993     1   123.2000528 564.003200
   3989   3992   3994     1   112.7300484 572.371200
   3993   3992   3994     1   122.1000523 635.131200
   3997   4000   4003     1   111.5100476 526.347200
   4000   4003   4006     1   111.0400475 552.288000
   4000   3997   4027     1   107.9700462 569.024000
   4003   4006   4007     1   112.3500484 533.878400
   4003   4006   4017     1   112.3500484 533.878400
   4006   4007   4010     1   111.0400475 552.288000
   4006   4017   4020     1   111.0400475 552.288000
   4007   4010   4013     1   111.0400475 529.694400
   4007   4006   4017     1   112.3500484 533.878400
   4010   4013   4014     1   123.2000528 564.003200
   4010   4013   4015     1   112.7300484 572.371200
   4014   4013   4015     1   122.1000523 635.131200
   4017   4020   4023     1   111.0400475 529.694400
   4020   4023   4024     1   123.2000528 564.003200
   4020   4023   4025     1   112.7300484 572.371200
   4024   4023   4025     1   122.1000523 635.131200
   4028   4031   4034     1   111.5100476 526.347200
   4031   4028   4058     1   107.9700462 569.024000
   4031   4034   4037     1   111.0400475 552.288000
   4034   4037   4038     1   112.3500484 533.878400
   4034   4037   4048     1   112.3500484 533.878400
   4037   4038   4041     1   111.0400475 552.288000
   4037   4048   4051     1   111.0400475 552.288000
   4038   4037   4048     1   112.3500484 533.878400
   4038   4041   4044     1   111.0400475 529.694400
   4041   4044   4045     1   123.2000528 564.003200
   4041   4044   4046     1   112.7300484 572.371200
   4045   4044   4046     1   122.1000523 635.131200
   4048   4051   4054     1   111.0400475 529.694400
   4051   4054   4055     1   123.2000528 564.003200
   4051   4054   4056     1   112.7300484 572.371200
   4055   4054   4056     1   122.1000523 635.131200
   4059   4062   4065     1   111.5100476 526.347200
   4062   4065   4068     1   111.0400475 552.288000
   4062   4059   4089     1   107.9700462 569.024000
   4065   4068   4069     1   112.3500484 533.878400
   4065   4068   4079     1   112.3500484 533.878400
   4068   4069   4072     1   111.0400475 552.288000
   4068   4079   4082     1   111.0400475 552.288000
   4069   4072   4075     1   111.0400475 529.694400
   4069   4068   4079     1   112.3500484 533.878400
   4072   4075   4076     1   123.2000528 564.003200
   4072   4075   4077     1   112.7300484 572.371200
   4076   4075   4077     1   122.1000523 635.131200
   4079   4082   4085     1   111.0400475 529.694400
   4082   4085   4086     1   123.2000528 564.003200
   4082   4085   4087     1   112.7300484 572.371200
   4086   4085   4087     1   122.1000523 635.131200
   4090   4093   4096     1   111.5100476 526.347200
   4093   4090   4120     1   107.9700462 569.024000
   4093   4096   4099     1   111.0400475 552.288000
   4096   4099   4100     1   112.3500484 533.878400
   4096   4099   4110     1   112.3500484 533.878400
   4099   4100   4103     1   111.0400475 552.288000
   4099   4110   4113     1   111.0400475 552.288000
   4100   4099   4110     1   112.3500484 533.878400
   4100   4103   4106     1   111.0400475 529.694400
   4103   4106   4107     1   123.2000528 564.003200
   4103   4106   4108     1   112.7300484 572.371200
   4107   4106   4108     1   122.1000523 635.131200
   4110   4113   4116     1   111.0400475 529.694400
   4113   4116   4117     1   123.2000528 564.003200
   4113   4116   4118     1   112.7300484 572.371200
   4117   4116   4118     1   122.1000523 635.131200
   4121   4124   4127     1   111.5100476 526.347200
   4124   4127   4130     1   111.0400475 552.288000
   4124   4121   4151     1   107.9700462 569.024000
   4127   4130   4131     1   112.3500484 533.878400
   4127   4130   4141     1   112.3500484 533.878400
   4130   4131   4134     1   111.0400475 552.288000
   4130   4141   4144     1   111.0400475 552.288000
   4131   4134   4137     1   111.0400475 529.694400
   4131   4130   4141     1   112.3500484 533.878400
   4134   4137   4138     1   123.2000528 564.003200
   4134   4137   4139     1   112.7300484 572.371200
   4138   4137   4139     1   122.1000523 635.131200
   4141   4144   4147     1   111.0400475 529.694400
   4144   4147   4148     1   123.2000528 564.003200
   4144   4147   4149     1   112.7300484 572.371200
   4148   4147   4149     1   122.1000523 635.131200
   4152   4155   4158     1   111.5100476 526.347200
   4155   4152   4182     1   107.9700462 569.024000
   4155   4158   4161     1   111.0400475 552.288000
   4158   4161   4162     1   112.3500484 533.878400
   4158   4161   4172     1   112.3500484 533.878400
   4161   4162   4165     1   111.0400475 552.288000
   4161   4172   4175     1   111.0400475 552.288000
   4162   4161   4172     1   112.3500484 533.878400
   4162   4165   4168     1   111.0400475 529.694400
   4165   4168   4169     1   123.2000528 564.003200
   4165   4168   4170     1   112.7300484 572.371200
   4169   4168   4170     1   122.1000523 635.131200
   4172   4175   4178     1   111.0400475 529.694400
   4175   4178   4179     1   123.2000528 564.003200
   4175   4178   4180     1   112.7300484 572.371200
   4179   4178   4180     1   122.1000523 635.131200
   4183   4186   4189     1   111.5100476 526.347200
   4186   4189   4192     1   111.0400475 552.288000
   4186   4183   4213     1   107.9700462 569.024000
   4189   4192   4193     1   112.3500484 533.878400
   4189   4192   4203     1   112.3500484 533.878400
   4192   4193   4196     1   111.0400475 552.288000
   4192   4203   4206     1   111.0400475 552.288000
   4193   4196   4199     1   111.0400475 529.694400
   4193   4192   4203     1   112.3500484 533.878400
   4196   4199   4200     1   123.2000528 564.003200
   4196   4199   4201     1   112.7300484 572.371200
   4200   4199   4201     1   122.1000523 635.131200
   4203   4206   4209     1   111.0400475 529.694400
   4206   4209   4210     1   123.2000528 564.003200
   4206   4209   4211     1   112.7300484 572.371200
   4210   4209   4211     1   122.1000523 635.131200
   4214   4217   4220     1   111.5100476 526.347200
   4217   4214   4244     1   107.9700462 569.024000
   4217   4220   4223     1   111.0400475 552.288000
   4220   4223   4224     1   112.3500484 533.878400
   4220   4223   4234     1   112.3500484 533.878400
   4223   4224   4227     1   111.0400475 552.288000
   4223   4234   4237     1   111.0400475 552.288000
   4224   4223   4234     1   112.3500484 533.878400
   4224   4227   4230     1   111.0400475 529.694400
   4227   4230   4231     1   123.2000528 564.003200
   4227   4230   4232     1   112.7300484 572.371200
   4231   4230   4232     1   122.1000523 635.131200
   4234   4237   4240     1   111.0400475 529.694400
   4237   4240   4241     1   123.2000528 564.003200
   4237   4240   4242     1   112.7300484 572.371200
   4241   4240   4242     1   122.1000523 635.131200
   4245   4248   4251     1   111.5100476 526.347200
   4248   4251   4254     1   111.0400475 552.288000
   4248   4245   4275     1   107.9700462 569.024000
   4251   4254   4255     1   112.3500484 533.878400
   4251   4254   4265     1   112.3500484 533.878400
   4254   4255   4258     1   111.0400475 552.288000
   4254   4265   4268     1   111.0400475 552.288000
   4255   4258   4261     1   111.0400475 529.694400
   4255   4254   4265     1   112.3500484 533.878400
   4258   4261   4262     1   123.2000528 564.003200
   4258   4261   4263     1   112.7300484 572.371200
   4262   4261   4263     1   122.1000523 635.131200
   4265   4268   4271     1   111.0400475 529.694400
   4268   4271   4272     1   123.2000528 564.003200
   4268   4271   4273     1   112.7300484 572.371200
   4272   4271   4273     1   122.1000523 635.131200
   4276   4279   4282     1   111.5100476 526.347200
   4279   4276   4306     1   107.9700462 569.024000
   4279   4282   4285     1   111.0400475 552.288000
   4282   4285   4286     1   112.3500484 533.878400
   4282   4285   4296     1   112.3500484 533.878400
   4285   4286   4289     1   111.0400475 552.288000
   4285   4296   4299     1   111.0400475 552.288000
   4286   4285   4296     1   112.3500484 533.878400
   4286   4289   4292     1   111.0400475 529.694400
   4289   4292   4293     1   123.2000528 564.003200
   4289   4292   4294     1   112.7300484 572.371200
   4293   4292   4294     1   122.1000523 635.131200
   4296   4299   4302     1   111.0400475 529.694400
   4299   4302   4303     1   123.2000528 564.003200
   4299   4302   4304     1   112.7300484 572.371200
   4303   4302   4304     1   122.1000523 635.131200
   4307   4310   4313     1   111.5100476 526.347200
   4310   4313   4316     1   111.0400475 552.288000
   4310   4307   4337     1   107.9700462 569.024000
   4313   4316   4317     1   112.3500484 533.878400
   4313   4316   4327     1   112.3500484 533.878400
   4316   4317   4320     1   111.0400475 552.288000
   4316   4327   4330     1   111.0400475 552.288000
   4317   4320   4323     1   111.0400475 529.694400
   4317   4316   4327     1   112.3500484 533.878400
   4320   4323   4324     1   123.2000528 564.003200
   4320   4323   4325     1   112.7300484 572.371200
   4324   4323   4325     1   122.1000523 635.131200
   4327   4330   4333     1   111.0400475 529.694400
   4330   4333   4334     1   123.2000528 564.003200
   4330   4333   4335     1   112.7300484 572.371200
   4334   4333   4335     1   122.1000523 635.131200
   4338   4341   4344     1   111.5100476 526.347200
   4341   4338   4368     1   107.9700462 569.024000
   4341   4344   4347     1   111.0400475 552.288000
   4344   4347   4348     1   112.3500484 533.878400
   4344   4347   4358     1   112.3500484 533.878400
   4347   4348   4351     1   111.0400475 552.288000
   4347   4358   4361     1   111.0400475 552.288000
   4348   4347   4358     1   112.3500484 533.878400
   4348   4351   4354     1   111.0400475 529.694400
   4351   4354   4355     1   123.2000528 564.003200
   4351   4354   4356     1   112.7300484 572.371200
   4355   4354   4356     1   122.1000523 635.131200
   4358   4361   4364     1   111.0400475 529.694400
   4361   4364   4365     1   123.2000528 564.003200
   4361   4364   4366     1   112.7300484 572.371200
   4365   4364   4366     1   122.1000523 635.131200
   4369   4372   4375     1   111.5100476 526.347200
   4372   4375   4378     1   111.0400475 552.288000
   4372   4369   4399     1   107.9700462 569.024000
   4375   4378   4379     1   112.3500484 533.878400
   4375   4378   4389     1   112.3500484 533.878400
   4378   4379   4382     1   111.0400475 552.288000
   4378   4389   4392     1   111.0400475 552.288000
   4379   4382   4385     1   111.0400475 529.694400
   4379   4378   4389     1   112.3500484 533.878400
   4382   4385   4386     1   123.2000528 564.003200
   4382   4385   4387     1   112.7300484 572.371200
   4386   4385   4387     1   122.1000523 635.131200
   4389   4392   4395     1   111.0400475 529.694400
   4392   4395   4396     1   123.2000528 564.003200
   4392   4395   4397     1   112.7300484 572.371200
   4396   4395   4397     1   122.1000523 635.131200
   4400   4403   4406     1   111.5100476 526.347200
   4403   4400   4430     1   107.9700462 569.024000
   4403   4406   4409     1   111.0400475 552.288000
   4406   4409   4410     1   112.3500484 533.878400
   4406   4409   4420     1   112.3500484 533.878400
   4409   4410   4413     1   111.0400475 552.288000
   4409   4420   4423     1   111.0400475 552.288000
   4410   4409   4420     1   112.3500484 533.878400
   4410   4413   4416     1   111.0400475 529.694400
   4413   4416   4417     1   123.2000528 564.003200
   4413   4416   4418     1   112.7300484 572.371200
   4417   4416   4418     1   122.1000523 635.131200
   4420   4423   4426     1   111.0400475 529.694400
   4423   4426   4427     1   123.2000528 564.003200
   4423   4426   4428     1   112.7300484 572.371200
   4427   4426   4428     1   122.1000523 635.131200
   4431   4434   4437     1   111.5100476 526.347200
   4434   4437   4440     1   111.0400475 552.288000
   4434   4431   4461     1   107.9700462 569.024000
   4437   4440   4441     1   112.3500484 533.878400
   4437   4440   4451     1   112.3500484 533.878400
   4440   4441   4444     1   111.0400475 552.288000
   4440   4451   4454     1   111.0400475 552.288000
   4441   4444   4447     1   111.0400475 529.694400
   4441   4440   4451     1   112.3500484 533.878400
   4444   4447   4448     1   123.2000528 564.003200
   4444   4447   4449     1   112.7300484 572.371200
   4448   4447   4449     1   122.1000523 635.131200
   4451   4454   4457     1   111.0400475 529.694400
   4454   4457   4458     1   123.2000528 564.003200
   4454   4457   4459     1   112.7300484 572.371200
   4458   4457   4459     1   122.1000523 635.131200
   4462   4465   4468     1   111.5100476 526.347200
   4465   4462   4492     1   107.9700462 569.024000
   4465   4468   4471     1   111.0400475 552.288000
   4468   4471   4472     1   112.3500484 533.878400
   4468   4471   4482     1   112.3500484 533.878400
   4471   4472   4475     1   111.0400475 552.288000
   4471   4482   4485     1   111.0400475 552.288000
   4472   4471   4482     1   112.3500484 533.878400
   4472   4475   4478     1   111.0400475 529.694400
   4475   4478   4479     1   123.2000528 564.003200
   4475   4478   4480     1   112.7300484 572.371200
   4479   4478   4480     1   122.1000523 635.131200
   4482   4485   4488     1   111.0400475 529.694400
   4485   4488   4489     1   123.2000528 564.003200
   4485   4488   4490     1   112.7300484 572.371200
   4489   4488   4490     1   122.1000523 635.131200
   4493   4496   4499     1   111.5100476 526.347200
   4496   4499   4502     1   111.0400475 552.288000
   4496   4493   4523     1   107.9700462 569.024000
   4499   4502   4503     1   112.3500484 533.878400
   4499   4502   4513     1   112.3500484 533.878400
   4502   4503   4506     1   111.0400475 552.288000
   4502   4513   4516     1   111.0400475 552.288000
   4503   4506   4509     1   111.0400475 529.694400
   4503   4502   4513     1   112.3500484 533.878400
   4506   4509   4510     1   123.2000528 564.003200
   4506   4509   4511     1   112.7300484 572.371200
   4510   4509   4511     1   122.1000523 635.131200
   4513   4516   4519     1   111.0400475 529.694400
   4516   4519   4520     1   123.2000528 564.003200
   4516   4519   4521     1   112.7300484 572.371200
   4520   4519   4521     1   122.1000523 635.131200
   4524   4527   4530     1   111.5100476 526.347200
   4527   4524   4554     1   107.9700462 569.024000
   4527   4530   4533     1   111.0400475 552.288000
   4530   4533   4534     1   112.3500484 533.878400
   4530   4533   4544     1   112.3500484 533.878400
   4533   4534   4537     1   111.0400475 552.288000
   4533   4544   4547     1   111.0400475 552.288000
   4534   4533   4544     1   112.3500484 533.878400
   4534   4537   4540     1   111.0400475 529.694400
   4537   4540   4541     1   123.2000528 564.003200
   4537   4540   4542     1   112.7300484 572.371200
   4541   4540   4542     1   122.1000523 635.131200
   4544   4547   4550     1   111.0400475 529.694400
   4547   4550   4551     1   123.2000528 564.003200
   4547   4550   4552     1   112.7300484 572.371200
   4551   4550   4552     1   122.1000523 635.131200
   4555   4558   4561     1   111.5100476 526.347200
   4558   4561   4564     1   111.0400475 552.288000
   4558   4555   4585     1   107.9700462 569.024000
   4561   4564   4565     1   112.3500484 533.878400
   4561   4564   4575     1   112.3500484 533.878400
   4564   4565   4568     1   111.0400475 552.288000
   4564   4575   4578     1   111.0400475 552.288000
   4565   4568   4571     1   111.0400475 529.694400
   4565   4564   4575     1   112.3500484 533.878400
   4568   4571   4572     1   123.2000528 564.003200
   4568   4571   4573     1   112.7300484 572.371200
   4572   4571   4573     1   122.1000523 635.131200
   4575   4578   4581     1   111.0400475 529.694400
   4578   4581   4582     1   123.2000528 564.003200
   4578   4581   4583     1   112.7300484 572.371200
   4582   4581   4583     1   122.1000523 635.131200
   4586   4589   4592     1   111.5100476 526.347200
   4589   4586   4616     1   107.9700462 569.024000
   4589   4592   4595     1   111.0400475 552.288000
   4592   4595   4596     1   112.3500484 533.878400
   4592   4595   4606     1   112.3500484 533.878400
   4595   4596   4599     1   111.0400475 552.288000
   4595   4606   4609     1   111.0400475 552.288000
   4596   4595   4606     1   112.3500484 533.878400
   4596   4599   4602     1   111.0400475 529.694400
   4599   4602   4603     1   123.2000528 564.003200
   4599   4602   4604     1   112.7300484 572.371200
   4603   4602   4604     1   122.1000523 635.131200
   4606   4609   4612     1   111.0400475 529.694400
   4609   4612   4613     1   123.2000528 564.003200
   4609   4612   4614     1   112.7300484 572.371200
   4613   4612   4614     1   122.1000523 635.131200
   4617   4620   4623     1   111.5100476 526.347200
   4620   4623   4626     1   111.0400475 552.288000
   4620   4617   4647     1   107.9700462 569.024000
   4623   4626   4627     1   112.3500484 533.878400
   4623   4626   4637     1   112.3500484 533.878400
   4626   4627   4630     1   111.0400475 552.288000
   4626   4637   4640     1   111.0400475 552.288000
   4627   4630   4633     1   111.0400475 529.694400
   4627   4626   4637     1   112.3500484 533.878400
   4630   4633   4634     1   123.2000528 564.003200
   4630   4633   4635     1   112.7300484 572.371200
   4634   4633   4635     1   122.1000523 635.131200
   4637   4640   4643     1   111.0400475 529.694400
   4640   4643   4644     1   123.2000528 564.003200
   4640   4643   4645     1   112.7300484 572.371200
   4644   4643   4645     1   122.1000523 635.131200
   4648   4651   4654     1   111.5100476 526.347200
   4651   4648   4678     1   107.9700462 569.024000
   4651   4654   4657     1   111.0400475 552.288000
   4654   4657   4658     1   112.3500484 533.878400
   4654   4657   4668     1   112.3500484 533.878400
   4657   4658   4661     1   111.0400475 552.288000
   4657   4668   4671     1   111.0400475 552.288000
   4658   4657   4668     1   112.3500484 533.878400
   4658   4661   4664     1   111.0400475 529.694400
   4661   4664   4665     1   123.2000528 564.003200
   4661   4664   4666     1   112.7300484 572.371200
   4665   4664   4666     1   122.1000523 635.131200
   4668   4671   4674     1   111.0400475 529.694400
   4671   4674   4675     1   123.2000528 564.003200
   4671   4674   4676     1   112.7300484 572.371200
   4675   4674   4676     1   122.1000523 635.131200
   4679   4682   4685     1   111.5100476 526.347200
   4682   4685   4688     1   111.0400475 552.288000
   4682   4679   4709     1   107.9700462 569.024000
   4685   4688   4689     1   112.3500484 533.878400
   4685   4688   4699     1   112.3500484 533.878400
   4688   4689   4692     1   111.0400475 552.288000
   4688   4699   4702     1   111.0400475 552.288000
   4689   4692   4695     1   111.0400475 529.694400
   4689   4688   4699     1   112.3500484 533.878400
   4692   4695   4696     1   123.2000528 564.003200
   4692   4695   4697     1   112.7300484 572.371200
   4696   4695   4697     1   122.1000523 635.131200
   4699   4702   4705     1   111.0400475 529.694400
   4702   4705   4706     1   123.2000528 564.003200
   4702   4705   4707     1   112.7300484 572.371200
   4706   4705   4707     1   122.1000523 635.131200
   4710   4713   4716     1   111.5100476 526.347200
   4713   4710   4740     1   107.9700462 569.024000
   4713   4716   4719     1   111.0400475 552.288000
   4716   4719   4720     1   112.3500484 533.878400
   4716   4719   4730     1   112.3500484 533.878400
   4719   4720   4723     1   111.0400475 552.288000
   4719   4730   4733     1   111.0400475 552.288000
   4720   4719   4730     1   112.3500484 533.878400
   4720   4723   4726     1   111.0400475 529.694400
   4723   4726   4727     1   123.2000528 564.003200
   4723   4726   4728     1   112.7300484 572.371200
   4727   4726   4728     1   122.1000523 635.131200
   4730   4733   4736     1   111.0400475 529.694400
   4733   4736   4737     1   123.2000528 564.003200
   4733   4736   4738     1   112.7300484 572.371200
   4737   4736   4738     1   122.1000523 635.131200
   4741   4744   4747     1   111.5100476 526.347200
   4744   4747   4750     1   111.0400475 552.288000
   4744   4741   4771     1   107.9700462 569.024000
   4747   4750   4751     1   112.3500484 533.878400
   4747   4750   4761     1   112.3500484 533.878400
   4750   4751   4754     1   111.0400475 552.288000
   4750   4761   4764     1   111.0400475 552.288000
   4751   4754   4757     1   111.0400475 529.694400
   4751   4750   4761     1   112.3500484 533.878400
   4754   4757   4758     1   123.2000528 564.003200
   4754   4757   4759     1   112.7300484 572.371200
   4758   4757   4759     1   122.1000523 635.131200
   4761   4764   4767     1   111.0400475 529.694400
   4764   4767   4768     1   123.2000528 564.003200
   4764   4767   4769     1   112.7300484 572.371200
   4768   4767   4769     1   122.1000523 635.131200
   4772   4775   4778     1   111.5100476 526.347200
   4775   4772   4802     1   107.9700462 569.024000
   4775   4778   4781     1   111.0400475 552.288000
   4778   4781   4782     1   112.3500484 533.878400
   4778   4781   4792     1   112.3500484 533.878400
   4781   4782   4785     1   111.0400475 552.288000
   4781   4792   4795     1   111.0400475 552.288000
   4782   4781   4792     1   112.3500484 533.878400
   4782   4785   4788     1   111.0400475 529.694400
   4785   4788   4789     1   123.2000528 564.003200
   4785   4788   4790     1   112.7300484 572.371200
   4789   4788   4790     1   122.1000523 635.131200
   4792   4795   4798     1   111.0400475 529.694400
   4795   4798   4799     1   123.2000528 564.003200
   4795   4798   4800     1   112.7300484 572.371200
   4799   4798   4800     1   122.1000523 635.131200
   4803   4806   4809     1   111.5100476 526.347200
   4806   4809   4812     1   111.0400475 552.288000
   4806   4803   4833     1   107.9700462 569.024000
   4809   4812   4813     1   112.3500484 533.878400
   4809   4812   4823     1   112.3500484 533.878400
   4812   4813   4816     1   111.0400475 552.288000
   4812   4823   4826     1   111.0400475 552.288000
   4813   4816   4819     1   111.0400475 529.694400
   4813   4812   4823     1   112.3500484 533.878400
   4816   4819   4820     1   123.2000528 564.003200
   4816   4819   4821     1   112.7300484 572.371200
   4820   4819   4821     1   122.1000523 635.131200
   4823   4826   4829     1   111.0400475 529.694400
   4826   4829   4830     1   123.2000528 564.003200
   4826   4829   4831     1   112.7300484 572.371200
   4830   4829   4831     1   122.1000523 635.131200
   4834   4837   4840     1   111.5100476 526.347200
   4837   4834   4864     1   107.9700462 569.024000
   4837   4840   4843     1   111.0400475 552.288000
   4840   4843   4844     1   112.3500484 533.878400
   4840   4843   4854     1   112.3500484 533.878400
   4843   4844   4847     1   111.0400475 552.288000
   4843   4854   4857     1   111.0400475 552.288000
   4844   4843   4854     1   112.3500484 533.878400
   4844   4847   4850     1   111.0400475 529.694400
   4847   4850   4851     1   123.2000528 564.003200
   4847   4850   4852     1   112.7300484 572.371200
   4851   4850   4852     1   122.1000523 635.131200
   4854   4857   4860     1   111.0400475 529.694400
   4857   4860   4861     1   123.2000528 564.003200
   4857   4860   4862     1   112.7300484 572.371200
   4861   4860   4862     1   122.1000523 635.131200
   4865   4868   4871     1   111.5100476 526.347200
   4868   4871   4874     1   111.0400475 552.288000
   4868   4865   4895     1   107.9700462 569.024000
   4871   4874   4875     1   112.3500484 533.878400
   4871   4874   4885     1   112.3500484 533.878400
   4874   4875   4878     1   111.0400475 552.288000
   4874   4885   4888     1   111.0400475 552.288000
   4875   4878   4881     1   111.0400475 529.694400
   4875   4874   4885     1   112.3500484 533.878400
   4878   4881   4882     1   123.2000528 564.003200
   4878   4881   4883     1   112.7300484 572.371200
   4882   4881   4883     1   122.1000523 635.131200
   4885   4888   4891     1   111.0400475 529.694400
   4888   4891   4892     1   123.2000528 564.003200
   4888   4891   4893     1   112.7300484 572.371200
   4892   4891   4893     1   122.1000523 635.131200
   4896   4899   4902     1   111.5100476 526.347200
   4899   4896   4926     1   107.9700462 569.024000
   4899   4902   4905     1   111.0400475 552.288000
   4902   4905   4906     1   112.3500484 533.878400
   4902   4905   4916     1   112.3500484 533.878400
   4905   4906   4909     1   111.0400475 552.288000
   4905   4916   4919     1   111.0400475 552.288000
   4906   4905   4916     1   112.3500484 533.878400
   4906   4909   4912     1   111.0400475 529.694400
   4909   4912   4913     1   123.2000528 564.003200
   4909   4912   4914     1   112.7300484 572.371200
   4913   4912   4914     1   122.1000523 635.131200
   4916   4919   4922     1   111.0400475 529.694400
   4919   4922   4923     1   123.2000528 564.003200
   4919   4922   4924     1   112.7300484 572.371200
   4923   4922   4924     1   122.1000523 635.131200
   4927   4930   4933     1   111.5100476 526.347200
   4930   4933   4936     1   111.0400475 552.288000
   4930   4927   4957     1   107.9700462 569.024000
   4933   4936   4937     1   112.3500484 533.878400
   4933   4936   4947     1   112.3500484 533.878400
   4936   4937   4940     1   111.0400475 552.288000
   4936   4947   4950     1   111.0400475 552.288000
   4937   4940   4943     1   111.0400475 529.694400
   4937   4936   4947     1   112.3500484 533.878400
   4940   4943   4944     1   123.2000528 564.003200
   4940   4943   4945     1   112.7300484 572.371200
   4944   4943   4945     1   122.1000523 635.131200
   4947   4950   4953     1   111.0400475 529.694400
   4950   4953   4954     1   123.2000528 564.003200
   4950   4953   4955     1   112.7300484 572.371200
   4954   4953   4955     1   122.1000523 635.131200
   4958   4961   4964     1   111.5100476 526.347200
   4961   4958   4988     1   107.9700462 569.024000
   4961   4964   4967     1   111.0400475 552.288000
   4964   4967   4968     1   112.3500484 533.878400
   4964   4967   4978     1   112.3500484 533.878400
   4967   4968   4971     1   111.0400475 552.288000
   4967   4978   4981     1   111.0400475 552.288000
   4968   4967   4978     1   112.3500484 533.878400
   4968   4971   4974     1   111.0400475 529.694400
   4971   4974   4975     1   123.2000528 564.003200
   4971   4974   4976     1   112.7300484 572.371200
   4975   4974   4976     1   122.1000523 635.131200
   4978   4981   4984     1   111.0400475 529.694400
   4981   4984   4985     1   123.2000528 564.003200
   4981   4984   4986     1   112.7300484 572.371200
   4985   4984   4986     1   122.1000523 635.131200
   4989   4992   4995     1   111.5100476 526.347200
   4992   4995   4998     1   111.0400475 552.288000
   4992   4989   5019     1   107.9700462 569.024000
   4995   4998   4999     1   112.3500484 533.878400
   4995   4998   5009     1   112.3500484 533.878400
   4998   4999   5002     1   111.0400475 552.288000
   4998   5009   5012     1   111.0400475 552.288000
   4999   5002   5005     1   111.0400475 529.694400
   4999   4998   5009     1   112.3500484 533.878400
   5002   5005   5006     1   123.2000528 564.003200
   5002   5005   5007     1   112.7300484 572.371200
   5006   5005   5007     1   122.1000523 635.131200
   5009   5012   5015     1   111.0400475 529.694400
   5012   5015   5016     1   123.2000528 564.003200
   5012   5015   5017     1   112.7300484 572.371200
   5016   5015   5017     1   122.1000523 635.131200
   5020   5023   5026     1   111.5100476 526.347200
   5023   5020   5050     1   107.9700462 569.024000
   5023   5026   5029     1   111.0400475 552.288000
   5026   5029   5030     1   112.3500484 533.878400
   5026   5029   5040     1   112.3500484 533.878400
   5029   5030   5033     1   111.0400475 552.288000
   5029   5040   5043     1   111.0400475 552.288000
   5030   5029   5040     1   112.3500484 533.878400
   5030   5033   5036     1   111.0400475 529.694400
   5033   5036   5037     1   123.2000528 564.003200
   5033   5036   5038     1   112.7300484 572.371200
   5037   5036   5038     1   122.1000523 635.131200
   5040   5043   5046     1   111.0400475 529.694400
   5043   5046   5047     1   123.2000528 564.003200
   5043   5046   5048     1   112.7300484 572.371200
   5047   5046   5048     1   122.1000523 635.131200
   5051   5054   5057     1   111.5100476 526.347200
   5054   5057   5060     1   111.0400475 552.288000
   5054   5051   5081     1   107.9700462 569.024000
   5057   5060   5061     1   112.3500484 533.878400
   5057   5060   5071     1   112.3500484 533.878400
   5060   5061   5064     1   111.0400475 552.288000
   5060   5071   5074     1   111.0400475 552.288000
   5061   5064   5067     1   111.0400475 529.694400
   5061   5060   5071     1   112.3500484 533.878400
   5064   5067   5068     1   123.2000528 564.003200
   5064   5067   5069     1   112.7300484 572.371200
   5068   5067   5069     1   122.1000523 635.131200
   5071   5074   5077     1   111.0400475 529.694400
   5074   5077   5078     1   123.2000528 564.003200
   5074   5077   5079     1   112.7300484 572.371200
   5078   5077   5079     1   122.1000523 635.131200
   5082   5085   5088     1   111.5100476 526.347200
   5085   5082   5112     1   107.9700462 569.024000
   5085   5088   5091     1   111.0400475 552.288000
   5088   5091   5092     1   112.3500484 533.878400
   5088   5091   5102     1   112.3500484 533.878400
   5091   5092   5095     1   111.0400475 552.288000
   5091   5102   5105     1   111.0400475 552.288000
   5092   5091   5102     1   112.3500484 533.878400
   5092   5095   5098     1   111.0400475 529.694400
   5095   5098   5099     1   123.2000528 564.003200
   5095   5098   5100     1   112.7300484 572.371200
   5099   5098   5100     1   122.1000523 635.131200
   5102   5105   5108     1   111.0400475 529.694400
   5105   5108   5109     1   123.2000528 564.003200
   5105   5108   5110     1   112.7300484 572.371200
   5109   5108   5110     1   122.1000523 635.131200
   5113   5116   5119     1   111.5100476 526.347200
   5116   5119   5122     1   111.0400475 552.288000
   5116   5113   5143     1   107.9700462 569.024000
   5119   5122   5123     1   112.3500484 533.878400
   5119   5122   5133     1   112.3500484 533.878400
   5122   5123   5126     1   111.0400475 552.288000
   5122   5133   5136     1   111.0400475 552.288000
   5123   5126   5129     1   111.0400475 529.694400
   5123   5122   5133     1   112.3500484 533.878400
   5126   5129   5130     1   123.2000528 564.003200
   5126   5129   5131     1   112.7300484 572.371200
   5130   5129   5131     1   122.1000523 635.131200
   5133   5136   5139     1   111.0400475 529.694400
   5136   5139   5140     1   123.2000528 564.003200
   5136   5139   5141     1   112.7300484 572.371200
   5140   5139   5141     1   122.1000523 635.131200
   5144   5147   5150     1   111.5100476 526.347200
   5147   5144   5174     1   107.9700462 569.024000
   5147   5150   5153     1   111.0400475 552.288000
   5150   5153   5154     1   112.3500484 533.878400
   5150   5153   5164     1   112.3500484 533.878400
   5153   5154   5157     1   111.0400475 552.288000
   5153   5164   5167     1   111.0400475 552.288000
   5154   5153   5164     1   112.3500484 533.878400
   5154   5157   5160     1   111.0400475 529.694400
   5157   5160   5161     1   123.2000528 564.003200
   5157   5160   5162     1   112.7300484 572.371200
   5161   5160   5162     1   122.1000523 635.131200
   5164   5167   5170     1   111.0400475 529.694400
   5167   5170   5171     1   123.2000528 564.003200
   5167   5170   5172     1   112.7300484 572.371200
   5171   5170   5172     1   122.1000523 635.131200
   5175   5178   5181     1   111.5100476 526.347200
   5178   5181   5184     1   111.0400475 552.288000
   5178   5175   5205     1   107.9700462 569.024000
   5181   5184   5185     1   112.3500484 533.878400
   5181   5184   5195     1   112.3500484 533.878400
   5184   5185   5188     1   111.0400475 552.288000
   5184   5195   5198     1   111.0400475 552.288000
   5185   5188   5191     1   111.0400475 529.694400
   5185   5184   5195     1   112.3500484 533.878400
   5188   5191   5192     1   123.2000528 564.003200
   5188   5191   5193     1   112.7300484 572.371200
   5192   5191   5193     1   122.1000523 635.131200
   5195   5198   5201     1   111.0400475 529.694400
   5198   5201   5202     1   123.2000528 564.003200
   5198   5201   5203     1   112.7300484 572.371200
   5202   5201   5203     1   122.1000523 635.131200
   5206   5209   5212     1   111.5100476 526.347200
   5209   5206   5236     1   107.9700462 569.024000
   5209   5212   5215     1   111.0400475 552.288000
   5212   5215   5216     1   112.3500484 533.878400
   5212   5215   5226     1   112.3500484 533.878400
   5215   5216   5219     1   111.0400475 552.288000
   5215   5226   5229     1   111.0400475 552.288000
   5216   5215   5226     1   112.3500484 533.878400
   5216   5219   5222     1   111.0400475 529.694400
   5219   5222   5223     1   123.2000528 564.003200
   5219   5222   5224     1   112.7300484 572.371200
   5223   5222   5224     1   122.1000523 635.131200
   5226   5229   5232     1   111.0400475 529.694400
   5229   5232   5233     1   123.2000528 564.003200
   5229   5232   5234     1   112.7300484 572.371200
   5233   5232   5234     1   122.1000523 635.131200
   5237   5240   5243     1   111.5100476 526.347200
   5240   5243   5246     1   111.0400475 552.288000
   5240   5237   5267     1   107.9700462 569.024000
   5243   5246   5247     1   112.3500484 533.878400
   5243   5246   5257     1   112.3500484 533.878400
   5246   5247   5250     1   111.0400475 552.288000
   5246   5257   5260     1   111.0400475 552.288000
   5247   5250   5253     1   111.0400475 529.694400
   5247   5246   5257     1   112.3500484 533.878400
   5250   5253   5254     1   123.2000528 564.003200
   5250   5253   5255     1   112.7300484 572.371200
   5254   5253   5255     1   122.1000523 635.131200
   5257   5260   5263     1   111.0400475 529.694400
   5260   5263   5264     1   123.2000528 564.003200
   5260   5263   5265     1   112.7300484 572.371200
   5264   5263   5265     1   122.1000523 635.131200
   5268   5271   5274     1   111.5100476 526.347200
   5271   5268   5298     1   107.9700462 569.024000
   5271   5274   5277     1   111.0400475 552.288000
   5274   5277   5278     1   112.3500484 533.878400
   5274   5277   5288     1   112.3500484 533.878400
   5277   5278   5281     1   111.0400475 552.288000
   5277   5288   5291     1   111.0400475 552.288000
   5278   5277   5288     1   112.3500484 533.878400
   5278   5281   5284     1   111.0400475 529.694400
   5281   5284   5285     1   123.2000528 564.003200
   5281   5284   5286     1   112.7300484 572.371200
   5285   5284   5286     1   122.1000523 635.131200
   5288   5291   5294     1   111.0400475 529.694400
   5291   5294   5295     1   123.2000528 564.003200
   5291   5294   5296     1   112.7300484 572.371200
   5295   5294   5296     1   122.1000523 635.131200
   5299   5302   5305     1   111.5100476 526.347200
   5302   5305   5308     1   111.0400475 552.288000
   5302   5299   5329     1   107.9700462 569.024000
   5305   5308   5309     1   112.3500484 533.878400
   5305   5308   5319     1   112.3500484 533.878400
   5308   5309   5312     1   111.0400475 552.288000
   5308   5319   5322     1   111.0400475 552.288000
   5309   5312   5315     1   111.0400475 529.694400
   5309   5308   5319     1   112.3500484 533.878400
   5312   5315   5316     1   123.2000528 564.003200
   5312   5315   5317     1   112.7300484 572.371200
   5316   5315   5317     1   122.1000523 635.131200
   5319   5322   5325     1   111.0400475 529.694400
   5322   5325   5326     1   123.2000528 564.003200
   5322   5325   5327     1   112.7300484 572.371200
   5326   5325   5327     1   122.1000523 635.131200
   5330   5333   5336     1   111.5100476 526.347200
   5333   5330   5360     1   107.9700462 569.024000
   5333   5336   5339     1   111.0400475 552.288000
   5336   5339   5340     1   112.3500484 533.878400
   5336   5339   5350     1   112.3500484 533.878400
   5339   5340   5343     1   111.0400475 552.288000
   5339   5350   5353     1   111.0400475 552.288000
   5340   5339   5350     1   112.3500484 533.878400
   5340   5343   5346     1   111.0400475 529.694400
   5343   5346   5347     1   123.2000528 564.003200
   5343   5346   5348     1   112.7300484 572.371200
   5347   5346   5348     1   122.1000523 635.131200
   5350   5353   5356     1   111.0400475 529.694400
   5353   5356   5357     1   123.2000528 564.003200
   5353   5356   5358     1   112.7300484 572.371200
   5357   5356   5358     1   122.1000523 635.131200
   5361   5364   5367     1   111.5100476 526.347200
   5364   5367   5370     1   111.0400475 552.288000
   5364   5361   5391     1   107.9700462 569.024000
   5367   5370   5371     1   112.3500484 533.878400
   5367   5370   5381     1   112.3500484 533.878400
   5370   5371   5374     1   111.0400475 552.288000
   5370   5381   5384     1   111.0400475 552.288000
   5371   5374   5377     1   111.0400475 529.694400
   5371   5370   5381     1   112.3500484 533.878400
   5374   5377   5378     1   123.2000528 564.003200
   5374   5377   5379     1   112.7300484 572.371200
   5378   5377   5379     1   122.1000523 635.131200
   5381   5384   5387     1   111.0400475 529.694400
   5384   5387   5388     1   123.2000528 564.003200
   5384   5387   5389     1   112.7300484 572.371200
   5388   5387   5389     1   122.1000523 635.131200
   5392   5395   5398     1   111.5100476 526.347200
   5395   5392   5422     1   107.9700462 569.024000
   5395   5398   5401     1   111.0400475 552.288000
   5398   5401   5402     1   112.3500484 533.878400
   5398   5401   5412     1   112.3500484 533.878400
   5401   5402   5405     1   111.0400475 552.288000
   5401   5412   5415     1   111.0400475 552.288000
   5402   5401   5412     1   112.3500484 533.878400
   5402   5405   5408     1   111.0400475 529.694400
   5405   5408   5409     1   123.2000528 564.003200
   5405   5408   5410     1   112.7300484 572.371200
   5409   5408   5410     1   122.1000523 635.131200
   5412   5415   5418     1   111.0400475 529.694400
   5415   5418   5419     1   123.2000528 564.003200
   5415   5418   5420     1   112.7300484 572.371200
   5419   5418   5420     1   122.1000523 635.131200
   5423   5426   5429     1   111.5100476 526.347200
   5426   5429   5432     1   111.0400475 552.288000
   5426   5423   5453     1   107.9700462 569.024000
   5429   5432   5433     1   112.3500484 533.878400
   5429   5432   5443     1   112.3500484 533.878400
   5432   5433   5436     1   111.0400475 552.288000
   5432   5443   5446     1   111.0400475 552.288000
   5433   5436   5439     1   111.0400475 529.694400
   5433   5432   5443     1   112.3500484 533.878400
   5436   5439   5440     1   123.2000528 564.003200
   5436   5439   5441     1   112.7300484 572.371200
   5440   5439   5441     1   122.1000523 635.131200
   5443   5446   5449     1   111.0400475 529.694400
   5446   5449   5450     1   123.2000528 564.003200
   5446   5449   5451     1   112.7300484 572.371200
   5450   5449   5451     1   122.1000523 635.131200
   5454   5457   5460     1   111.5100476 526.347200
   5457   5454   5484     1   107.9700462 569.024000
   5457   5460   5463     1   111.0400475 552.288000
   5460   5463   5464     1   112.3500484 533.878400
   5460   5463   5474     1   112.3500484 533.878400
   5463   5464   5467     1   111.0400475 552.288000
   5463   5474   5477     1   111.0400475 552.288000
   5464   5463   5474     1   112.3500484 533.878400
   5464   5467   5470     1   111.0400475 529.694400
   5467   5470   5471     1   123.2000528 564.003200
   5467   5470   5472     1   112.7300484 572.371200
   5471   5470   5472     1   122.1000523 635.131200
   5474   5477   5480     1   111.0400475 529.694400
   5477   5480   5481     1   123.2000528 564.003200
   5477   5480   5482     1   112.7300484 572.371200
   5481   5480   5482     1   122.1000523 635.131200
   5485   5488   5491     1   111.5100476 526.347200
   5488   5491   5494     1   111.0400475 552.288000
   5488   5485   5515     1   107.9700462 569.024000
   5491   5494   5495     1   112.3500484 533.878400
   5491   5494   5505     1   112.3500484 533.878400
   5494   5495   5498     1   111.0400475 552.288000
   5494   5505   5508     1   111.0400475 552.288000
   5495   5498   5501     1   111.0400475 529.694400
   5495   5494   5505     1   112.3500484 533.878400
   5498   5501   5502     1   123.2000528 564.003200
   5498   5501   5503     1   112.7300484 572.371200
   5502   5501   5503     1   122.1000523 635.131200
   5505   5508   5511     1   111.0400475 529.694400
   5508   5511   5512     1   123.2000528 564.003200
   5508   5511   5513     1   112.7300484 572.371200
   5512   5511   5513     1   122.1000523 635.131200
   5516   5519   5522     1   111.5100476 526.347200
   5519   5516   5546     1   107.9700462 569.024000
   5519   5522   5525     1   111.0400475 552.288000
   5522   5525   5526     1   112.3500484 533.878400
   5522   5525   5536     1   112.3500484 533.878400
   5525   5526   5529     1   111.0400475 552.288000
   5525   5536   5539     1   111.0400475 552.288000
   5526   5525   5536     1   112.3500484 533.878400
   5526   5529   5532     1   111.0400475 529.694400
   5529   5532   5533     1   123.2000528 564.003200
   5529   5532   5534     1   112.7300484 572.371200
   5533   5532   5534     1   122.1000523 635.131200
   5536   5539   5542     1   111.0400475 529.694400
   5539   5542   5543     1   123.2000528 564.003200
   5539   5542   5544     1   112.7300484 572.371200
   5543   5542   5544     1   122.1000523 635.131200
   5547   5550   5553     1   111.5100476 526.347200
   5550   5553   5556     1   111.0400475 552.288000
   5550   5547   5577     1   107.9700462 569.024000
   5553   5556   5557     1   112.3500484 533.878400
   5553   5556   5567     1   112.3500484 533.878400
   5556   5557   5560     1   111.0400475 552.288000
   5556   5567   5570     1   111.0400475 552.288000
   5557   5560   5563     1   111.0400475 529.694400
   5557   5556   5567     1   112.3500484 533.878400
   5560   5563   5564     1   123.2000528 564.003200
   5560   5563   5565     1   112.7300484 572.371200
   5564   5563   5565     1   122.1000523 635.131200
   5567   5570   5573     1   111.0400475 529.694400
   5570   5573   5574     1   123.2000528 564.003200
   5570   5573   5575     1   112.7300484 572.371200
   5574   5573   5575     1   122.1000523 635.131200
   5578   5581   5584     1   111.5100476 526.347200
   5581   5578   5608     1   107.9700462 569.024000
   5581   5584   5587     1   111.0400475 552.288000
   5584   5587   5588     1   112.3500484 533.878400
   5584   5587   5598     1   112.3500484 533.878400
   5587   5588   5591     1   111.0400475 552.288000
   5587   5598   5601     1   111.0400475 552.288000
   5588   5587   5598     1   112.3500484 533.878400
   5588   5591   5594     1   111.0400475 529.694400
   5591   5594   5595     1   123.2000528 564.003200
   5591   5594   5596     1   112.7300484 572.371200
   5595   5594   5596     1   122.1000523 635.131200
   5598   5601   5604     1   111.0400475 529.694400
   5601   5604   5605     1   123.2000528 564.003200
   5601   5604   5606     1   112.7300484 572.371200
   5605   5604   5606     1   122.1000523 635.131200
   5609   5612   5615     1   111.5100476 526.347200
   5612   5615   5618     1   111.0400475 552.288000
   5612   5609   5639     1   107.9700462 569.024000
   5615   5618   5619     1   112.3500484 533.878400
   5615   5618   5629     1   112.3500484 533.878400
   5618   5619   5622     1   111.0400475 552.288000
   5618   5629   5632     1   111.0400475 552.288000
   5619   5622   5625     1   111.0400475 529.694400
   5619   5618   5629     1   112.3500484 533.878400
   5622   5625   5626     1   123.2000528 564.003200
   5622   5625   5627     1   112.7300484 572.371200
   5626   5625   5627     1   122.1000523 635.131200
   5629   5632   5635     1   111.0400475 529.694400
   5632   5635   5636     1   123.2000528 564.003200
   5632   5635   5637     1   112.7300484 572.371200
   5636   5635   5637     1   122.1000523 635.131200
   5640   5643   5646     1   111.5100476 526.347200
   5643   5640   5670     1   107.9700462 569.024000
   5643   5646   5649     1   111.0400475 552.288000
   5646   5649   5650     1   112.3500484 533.878400
   5646   5649   5660     1   112.3500484 533.878400
   5649   5650   5653     1   111.0400475 552.288000
   5649   5660   5663     1   111.0400475 552.288000
   5650   5649   5660     1   112.3500484 533.878400
   5650   5653   5656     1   111.0400475 529.694400
   5653   5656   5657     1   123.2000528 564.003200
   5653   5656   5658     1   112.7300484 572.371200
   5657   5656   5658     1   122.1000523 635.131200
   5660   5663   5666     1   111.0400475 529.694400
   5663   5666   5667     1   123.2000528 564.003200
   5663   5666   5668     1   112.7300484 572.371200
   5667   5666   5668     1   122.1000523 635.131200
   5671   5674   5677     1   111.5100476 526.347200
   5674   5677   5680     1   111.0400475 552.288000
   5674   5671   5701     1   107.9700462 569.024000
   5677   5680   5681     1   112.3500484 533.878400
   5677   5680   5691     1   112.3500484 533.878400
   5680   5681   5684     1   111.0400475 552.288000
   5680   5691   5694     1   111.0400475 552.288000
   5681   5684   5687     1   111.0400475 529.694400
   5681   5680   5691     1   112.3500484 533.878400
   5684   5687   5688     1   123.2000528 564.003200
   5684   5687   5689     1   112.7300484 572.371200
   5688   5687   5689     1   122.1000523 635.131200
   5691   5694   5697     1   111.0400475 529.694400
   5694   5697   5698     1   123.2000528 564.003200
   5694   5697   5699     1   112.7300484 572.371200
   5698   5697   5699     1   122.1000523 635.131200
      1      2      3     1   109.8800469 414.216000
      1      2      4     1   109.8800469 414.216000
      1      5      6     1   109.8800469 414.216000
      1      5      7     1   109.8800469 414.216000
      1      8      9     1   109.8800469 414.216000
      1      8     10     1   109.8800469 414.216000
      2     14     15     1   109.8000471 387.438400
      2     14     16     1   109.8000471 387.438400
      3      2     14     1   109.5600471 388.275200
      3      2      4     1   108.4600466 328.025600
      4      2     14     1   109.5600471 388.275200
      5     17     18     1   109.8000471 387.438400
      5     17     19     1   109.8000471 387.438400
      6      5     17     1   109.5600471 388.275200
      6      5      7     1   108.4600466 328.025600
      7      5     17     1   109.5600471 388.275200
      8     11     12     1   109.8000471 387.438400
      8     11     13     1   109.8000471 387.438400
      9      8     11     1   109.5600471 388.275200
      9      8     10     1   108.4600466 328.025600
     10      8     11     1   109.5600471 388.275200
     11     23     24     1   109.5600471 388.275200
     11     23     25     1   109.5600471 388.275200
     12     11     23     1   109.8000471 387.438400
     12     11     13     1   107.5800459 329.699200
     13     11     23     1   109.8000471 387.438400
     14     26     27     1   109.5600471 388.275200
     14     26     28     1   109.5600471 388.275200
     15     14     26     1   109.8000471 387.438400
     15     14     16     1   107.5800459 329.699200
     16     14     26     1   109.8000471 387.438400
     17     20     21     1   109.5600471 388.275200
     17     20     22     1   109.5600471 388.275200
     18     17     20     1   109.8000471 387.438400
     18     17     19     1   107.5800459 329.699200
     19     17     20     1   109.8000471 387.438400
     21     20     57     1   109.7800468 425.094400
     21     20     22     1   108.4600466 328.025600
     22     20     57     1   109.7800468 425.094400
     24     23     86     1   109.7800468 425.094400
     24     23     25     1   108.4600466 328.025600
     25     23     86     1   109.7800468 425.094400
     27     26    115     1   109.7800468 425.094400
     27     26     28     1   108.4600466 328.025600
     28     26    115     1   109.7800468 425.094400
     29     30     31     1   109.8800469 414.216000
     29     30     32     1   109.8800469 414.216000
     29     33     34     1   109.8800469 414.216000
     29     33     35     1   109.8800469 414.216000
     29     36     37     1   109.8800469 414.216000
     29     36     38     1   109.8800469 414.216000
     30     42     43     1   109.8000471 387.438400
     30     42     44     1   109.8000471 387.438400
     31     30     42     1   109.5600471 388.275200
     31     30     32     1   108.4600466 328.025600
     32     30     42     1   109.5600471 388.275200
     33     45     46     1   109.8000471 387.438400
     33     45     47     1   109.8000471 387.438400
     34     33     45     1   109.5600471 388.275200
     34     33     35     1   108.4600466 328.025600
     35     33     45     1   109.5600471 388.275200
     36     39     40     1   109.8000471 387.438400
     36     39     41     1   109.8000471 387.438400
     37     36     39     1   109.5600471 388.275200
     37     36     38     1   108.4600466 328.025600
     38     36     39     1   109.5600471 388.275200
     39     48     49     1   109.5600471 388.275200
     39     48     50     1   109.5600471 388.275200
     40     39     48     1   109.8000471 387.438400
     40     39     41     1   107.5800459 329.699200
     41     39     48     1   109.8000471 387.438400
     42     54     55     1   109.5600471 388.275200
     42     54     56     1   109.5600471 388.275200
     43     42     54     1   109.8000471 387.438400
     43     42     44     1   107.5800459 329.699200
     44     42     54     1   109.8000471 387.438400
     45     51     52     1   109.5600471 388.275200
     45     51     53     1   109.5600471 388.275200
     46     45     51     1   109.8000471 387.438400
     46     45     47     1   107.5800459 329.699200
     47     45     51     1   109.8000471 387.438400
     49     48     57     1   109.7800468 425.094400
     49     48     50     1   108.4600466 328.025600
     50     48     57     1   109.7800468 425.094400
     52     51    144     1   109.7800468 425.094400
     52     51     53     1   108.4600466 328.025600
     53     51    144     1   109.7800468 425.094400
     55     54    173     1   109.7800468 425.094400
     55     54     56     1   108.4600466 328.025600
     56     54    173     1   109.7800468 425.094400
     58     59     60     1   109.8800469 414.216000
     58     59     61     1   109.8800469 414.216000
     58     62     63     1   109.8800469 414.216000
     58     62     64     1   109.8800469 414.216000
     58     65     66     1   109.8800469 414.216000
     58     65     67     1   109.8800469 414.216000
     59     71     72     1   109.8000471 387.438400
     59     71     73     1   109.8000471 387.438400
     60     59     71     1   109.5600471 388.275200
     60     59     61     1   108.4600466 328.025600
     61     59     71     1   109.5600471 388.275200
     62     74     75     1   109.8000471 387.438400
     62     74     76     1   109.8000471 387.438400
     63     62     74     1   109.5600471 388.275200
     63     62     64     1   108.4600466 328.025600
     64     62     74     1   109.5600471 388.275200
     65     68     69     1   109.8000471 387.438400
     65     68     70     1   109.8000471 387.438400
     66     65     68     1   109.5600471 388.275200
     66     65     67     1   108.4600466 328.025600
     67     65     68     1   109.5600471 388.275200
     68     77     78     1   109.5600471 388.275200
     68     77     79     1   109.5600471 388.275200
     69     68     77     1   109.8000471 387.438400
     69     68     70     1   107.5800459 329.699200
     70     68     77     1   109.8000471 387.438400
     71     83     84     1   109.5600471 388.275200
     71     83     85     1   109.5600471 388.275200
     72     71     83     1   109.8000471 387.438400
     72     71     73     1   107.5800459 329.699200
     73     71     83     1   109.8000471 387.438400
     74     80     81     1   109.5600471 388.275200
     74     80     82     1   109.5600471 388.275200
     75     74     80     1   109.8000471 387.438400
     75     74     76     1   107.5800459 329.699200
     76     74     80     1   109.8000471 387.438400
     78     77     86     1   109.7800468 425.094400
     78     77     79     1   108.4600466 328.025600
     79     77     86     1   109.7800468 425.094400
     81     80    202     1   109.7800468 425.094400
     81     80     82     1   108.4600466 328.025600
     82     80    202     1   109.7800468 425.094400
     84     83    231     1   109.7800468 425.094400
     84     83     85     1   108.4600466 328.025600
     85     83    231     1   109.7800468 425.094400
     87     88     89     1   109.8800469 414.216000
     87     88     90     1   109.8800469 414.216000
     87     91     92     1   109.8800469 414.216000
     87     91     93     1   109.8800469 414.216000
     87     94     95     1   109.8800469 414.216000
     87     94     96     1   109.8800469 414.216000
     88    100    101     1   109.8000471 387.438400
     88    100    102     1   109.8000471 387.438400
     89     88    100     1   109.5600471 388.275200
     89     88     90     1   108.4600466 328.025600
     90     88    100     1   109.5600471 388.275200
     91    103    104     1   109.8000471 387.438400
     91    103    105     1   109.8000471 387.438400
     92     91    103     1   109.5600471 388.275200
     92     91     93     1   108.4600466 328.025600
     93     91    103     1   109.5600471 388.275200
     94     97     98     1   109.8000471 387.438400
     94     97     99     1   109.8000471 387.438400
     95     94     97     1   109.5600471 388.275200
     95     94     96     1   108.4600466 328.025600
     96     94     97     1   109.5600471 388.275200
     97    106    107     1   109.5600471 388.275200
     97    106    108     1   109.5600471 388.275200
     98     97    106     1   109.8000471 387.438400
     98     97     99     1   107.5800459 329.699200
     99     97    106     1   109.8000471 387.438400
    100    112    113     1   109.5600471 388.275200
    100    112    114     1   109.5600471 388.275200
    101    100    112     1   109.8000471 387.438400
    101    100    102     1   107.5800459 329.699200
    102    100    112     1   109.8000471 387.438400
    103    109    110     1   109.5600471 388.275200
    103    109    111     1   109.5600471 388.275200
    104    103    109     1   109.8000471 387.438400
    104    103    105     1   107.5800459 329.699200
    105    103    109     1   109.8000471 387.438400
    107    106    115     1   109.7800468 425.094400
    107    106    108     1   108.4600466 328.025600
    108    106    115     1   109.7800468 425.094400
    110    109    260     1   109.7800468 425.094400
    110    109    111     1   108.4600466 328.025600
    111    109    260     1   109.7800468 425.094400
    113    112    289     1   109.7800468 425.094400
    113    112    114     1   108.4600466 328.025600
    114    112    289     1   109.7800468 425.094400
    116    117    118     1   109.8800469 414.216000
    116    117    119     1   109.8800469 414.216000
    116    120    121     1   109.8800469 414.216000
    116    120    122     1   109.8800469 414.216000
    116    123    124     1   109.8800469 414.216000
    116    123    125     1   109.8800469 414.216000
    117    129    130     1   109.8000471 387.438400
    117    129    131     1   109.8000471 387.438400
    118    117    129     1   109.5600471 388.275200
    118    117    119     1   108.4600466 328.025600
    119    117    129     1   109.5600471 388.275200
    120    132    133     1   109.8000471 387.438400
    120    132    134     1   109.8000471 387.438400
    121    120    132     1   109.5600471 388.275200
    121    120    122     1   108.4600466 328.025600
    122    120    132     1   109.5600471 388.275200
    123    126    127     1   109.8000471 387.438400
    123    126    128     1   109.8000471 387.438400
    124    123    126     1   109.5600471 388.275200
    124    123    125     1   108.4600466 328.025600
    125    123    126     1   109.5600471 388.275200
    126    135    136     1   109.5600471 388.275200
    126    135    137     1   109.5600471 388.275200
    127    126    135     1   109.8000471 387.438400
    127    126    128     1   107.5800459 329.699200
    128    126    135     1   109.8000471 387.438400
    129    141    142     1   109.5600471 388.275200
    129    141    143     1   109.5600471 388.275200
    130    129    141     1   109.8000471 387.438400
    130    129    131     1   107.5800459 329.699200
    131    129    141     1   109.8000471 387.438400
    132    138    139     1   109.5600471 388.275200
    132    138    140     1   109.5600471 388.275200
    133    132    138     1   109.8000471 387.438400
    133    132    134     1   107.5800459 329.699200
    134    132    138     1   109.8000471 387.438400
    136    135    144     1   109.7800468 425.094400
    136    135    137     1   108.4600466 328.025600
    137    135    144     1   109.7800468 425.094400
    139    138    318     1   109.7800468 425.094400
    139    138    140     1   108.4600466 328.025600
    140    138    318     1   109.7800468 425.094400
    142    141    347     1   109.7800468 425.094400
    142    141    143     1   108.4600466 328.025600
    143    141    347     1   109.7800468 425.094400
    145    146    147     1   109.8800469 414.216000
    145    146    148     1   109.8800469 414.216000
    145    149    150     1   109.8800469 414.216000
    145    149    151     1   109.8800469 414.216000
    145    152    153     1   109.8800469 414.216000
    145    152    154     1   109.8800469 414.216000
    146    158    159     1   109.8000471 387.438400
    146    158    160     1   109.8000471 387.438400
    147    146    158     1   109.5600471 388.275200
    147    146    148     1   108.4600466 328.025600
    148    146    158     1   109.5600471 388.275200
    149    161    162     1   109.8000471 387.438400
    149    161    163     1   109.8000471 387.438400
    150    149    161     1   109.5600471 388.275200
    150    149    151     1   108.4600466 328.025600
    151    149    161     1   109.5600471 388.275200
    152    155    156     1   109.8000471 387.438400
    152    155    157     1   109.8000471 387.438400
    153    152    155     1   109.5600471 388.275200
    153    152    154     1   108.4600466 328.025600
    154    152    155     1   109.5600471 388.275200
    155    164    165     1   109.5600471 388.275200
    155    164    166     1   109.5600471 388.275200
    156    155    164     1   109.8000471 387.438400
    156    155    157     1   107.5800459 329.699200
    157    155    164     1   109.8000471 387.438400
    158    170    171     1   109.5600471 388.275200
    158    170    172     1   109.5600471 388.275200
    159    158    170     1   109.8000471 387.438400
    159    158    160     1   107.5800459 329.699200
    160    158    170     1   109.8000471 387.438400
    161    167    168     1   109.5600471 388.275200
    161    167    169     1   109.5600471 388.275200
    162    161    167     1   109.8000471 387.438400
    162    161    163     1   107.5800459 329.699200
    163    161    167     1   109.8000471 387.438400
    165    164    173     1   109.7800468 425.094400
    165    164    166     1   108.4600466 328.025600
    166    164    173     1   109.7800468 425.094400
    168    167    376     1   109.7800468 425.094400
    168    167    169     1   108.4600466 328.025600
    169    167    376     1   109.7800468 425.094400
    171    170    405     1   109.7800468 425.094400
    171    170    172     1   108.4600466 328.025600
    172    170    405     1   109.7800468 425.094400
    174    175    176     1   109.8800469 414.216000
    174    175    177     1   109.8800469 414.216000
    174    178    179     1   109.8800469 414.216000
    174    178    180     1   109.8800469 414.216000
    174    181    182     1   109.8800469 414.216000
    174    181    183     1   109.8800469 414.216000
    175    187    188     1   109.8000471 387.438400
    175    187    189     1   109.8000471 387.438400
    176    175    187     1   109.5600471 388.275200
    176    175    177     1   108.4600466 328.025600
    177    175    187     1   109.5600471 388.275200
    178    190    191     1   109.8000471 387.438400
    178    190    192     1   109.8000471 387.438400
    179    178    190     1   109.5600471 388.275200
    179    178    180     1   108.4600466 328.025600
    180    178    190     1   109.5600471 388.275200
    181    184    185     1   109.8000471 387.438400
    181    184    186     1   109.8000471 387.438400
    182    181    184     1   109.5600471 388.275200
    182    181    183     1   108.4600466 328.025600
    183    181    184     1   109.5600471 388.275200
    184    193    194     1   109.5600471 388.275200
    184    193    195     1   109.5600471 388.275200
    185    184    193     1   109.8000471 387.438400
    185    184    186     1   107.5800459 329.699200
    186    184    193     1   109.8000471 387.438400
    187    199    200     1   109.5600471 388.275200
    187    199    201     1   109.5600471 388.275200
    188    187    199     1   109.8000471 387.438400
    188    187    189     1   107.5800459 329.699200
    189    187    199     1   109.8000471 387.438400
    190    196    197     1   109.5600471 388.275200
    190    196    198     1   109.5600471 388.275200
    191    190    196     1   109.8000471 387.438400
    191    190    192     1   107.5800459 329.699200
    192    190    196     1   109.8000471 387.438400
    194    193    202     1   109.7800468 425.094400
    194    193    195     1   108.4600466 328.025600
    195    193    202     1   109.7800468 425.094400
    197    196    434     1   109.7800468 425.094400
    197    196    198     1   108.4600466 328.025600
    198    196    434     1   109.7800468 425.094400
    200    199    463     1   109.7800468 425.094400
    200    199    201     1   108.4600466 328.025600
    201    199    463     1   109.7800468 425.094400
    203    204    205     1   109.8800469 414.216000
    203    204    206     1   109.8800469 414.216000
    203    207    208     1   109.8800469 414.216000
    203    207    209     1   109.8800469 414.216000
    203    210    211     1   109.8800469 414.216000
    203    210    212     1   109.8800469 414.216000
    204    216    217     1   109.8000471 387.438400
    204    216    218     1   109.8000471 387.438400
    205    204    216     1   109.5600471 388.275200
    205    204    206     1   108.4600466 328.025600
    206    204    216     1   109.5600471 388.275200
    207    219    220     1   109.8000471 387.438400
    207    219    221     1   109.8000471 387.438400
    208    207    219     1   109.5600471 388.275200
    208    207    209     1   108.4600466 328.025600
    209    207    219     1   109.5600471 388.275200
    210    213    214     1   109.8000471 387.438400
    210    213    215     1   109.8000471 387.438400
    211    210    213     1   109.5600471 388.275200
    211    210    212     1   108.4600466 328.025600
    212    210    213     1   109.5600471 388.275200
    213    222    223     1   109.5600471 388.275200
    213    222    224     1   109.5600471 388.275200
    214    213    222     1   109.8000471 387.438400
    214    213    215     1   107.5800459 329.699200
    215    213    222     1   109.8000471 387.438400
    216    228    229     1   109.5600471 388.275200
    216    228    230     1   109.5600471 388.275200
    217    216    228     1   109.8000471 387.438400
    217    216    218     1   107.5800459 329.699200
    218    216    228     1   109.8000471 387.438400
    219    225    226     1   109.5600471 388.275200
    219    225    227     1   109.5600471 388.275200
    220    219    225     1   109.8000471 387.438400
    220    219    221     1   107.5800459 329.699200
    221    219    225     1   109.8000471 387.438400
    223    222    231     1   109.7800468 425.094400
    223    222    224     1   108.4600466 328.025600
    224    222    231     1   109.7800468 425.094400
    226    225    492     1   109.7800468 425.094400
    226    225    227     1   108.4600466 328.025600
    227    225    492     1   109.7800468 425.094400
    229    228    521     1   109.7800468 425.094400
    229    228    230     1   108.4600466 328.025600
    230    228    521     1   109.7800468 425.094400
    232    233    234     1   109.8800469 414.216000
    232    233    235     1   109.8800469 414.216000
    232    236    237     1   109.8800469 414.216000
    232    236    238     1   109.8800469 414.216000
    232    239    240     1   109.8800469 414.216000
    232    239    241     1   109.8800469 414.216000
    233    245    246     1   109.8000471 387.438400
    233    245    247     1   109.8000471 387.438400
    234    233    245     1   109.5600471 388.275200
    234    233    235     1   108.4600466 328.025600
    235    233    245     1   109.5600471 388.275200
    236    248    249     1   109.8000471 387.438400
    236    248    250     1   109.8000471 387.438400
    237    236    248     1   109.5600471 388.275200
    237    236    238     1   108.4600466 328.025600
    238    236    248     1   109.5600471 388.275200
    239    242    243     1   109.8000471 387.438400
    239    242    244     1   109.8000471 387.438400
    240    239    242     1   109.5600471 388.275200
    240    239    241     1   108.4600466 328.025600
    241    239    242     1   109.5600471 388.275200
    242    251    252     1   109.5600471 388.275200
    242    251    253     1   109.5600471 388.275200
    243    242    251     1   109.8000471 387.438400
    243    242    244     1   107.5800459 329.699200
    244    242    251     1   109.8000471 387.438400
    245    257    258     1   109.5600471 388.275200
    245    257    259     1   109.5600471 388.275200
    246    245    257     1   109.8000471 387.438400
    246    245    247     1   107.5800459 329.699200
    247    245    257     1   109.8000471 387.438400
    248    254    255     1   109.5600471 388.275200
    248    254    256     1   109.5600471 388.275200
    249    248    254     1   109.8000471 387.438400
    249    248    250     1   107.5800459 329.699200
    250    248    254     1   109.8000471 387.438400
    252    251    260     1   109.7800468 425.094400
    252    251    253     1   108.4600466 328.025600
    253    251    260     1   109.7800468 425.094400
    255    254    550     1   109.7800468 425.094400
    255    254    256     1   108.4600466 328.025600
    256    254    550     1   109.7800468 425.094400
    258    257    579     1   109.7800468 425.094400
    258    257    259     1   108.4600466 328.025600
    259    257    579     1   109.7800468 425.094400
    261    262    263     1   109.8800469 414.216000
    261    262    264     1   109.8800469 414.216000
    261    265    266     1   109.8800469 414.216000
    261    265    267     1   109.8800469 414.216000
    261    268    269     1   109.8800469 414.216000
    261    268    270     1   109.8800469 414.216000
    262    274    275     1   109.8000471 387.438400
    262    274    276     1   109.8000471 387.438400
    263    262    274     1   109.5600471 388.275200
    263    262    264     1   108.4600466 328.025600
    264    262    274     1   109.5600471 388.275200
    265    277    278     1   109.8000471 387.438400
    265    277    279     1   109.8000471 387.438400
    266    265    277     1   109.5600471 388.275200
    266    265    267     1   108.4600466 328.025600
    267    265    277     1   109.5600471 388.275200
    268    271    272     1   109.8000471 387.438400
    268    271    273     1   109.8000471 387.438400
    269    268    271     1   109.5600471 388.275200
    269    268    270     1   108.4600466 328.025600
    270    268    271     1   109.5600471 388.275200
    271    280    281     1   109.5600471 388.275200
    271    280    282     1   109.5600471 388.275200
    272    271    280     1   109.8000471 387.438400
    272    271    273     1   107.5800459 329.699200
    273    271    280     1   109.8000471 387.438400
    274    286    287     1   109.5600471 388.275200
    274    286    288     1   109.5600471 388.275200
    275    274    286     1   109.8000471 387.438400
    275    274    276     1   107.5800459 329.699200
    276    274    286     1   109.8000471 387.438400
    277    283    284     1   109.5600471 388.275200
    277    283    285     1   109.5600471 388.275200
    278    277    283     1   109.8000471 387.438400
    278    277    279     1   107.5800459 329.699200
    279    277    283     1   109.8000471 387.438400
    281    280    289     1   109.7800468 425.094400
    281    280    282     1   108.4600466 328.025600
    282    280    289     1   109.7800468 425.094400
    284    283    608     1   109.7800468 425.094400
    284    283    285     1   108.4600466 328.025600
    285    283    608     1   109.7800468 425.094400
    287    286    637     1   109.7800468 425.094400
    287    286    288     1   108.4600466 328.025600
    288    286    637     1   109.7800468 425.094400
    290    291    292     1   109.8800469 414.216000
    290    291    293     1   109.8800469 414.216000
    290    294    295     1   109.8800469 414.216000
    290    294    296     1   109.8800469 414.216000
    290    297    298     1   109.8800469 414.216000
    290    297    299     1   109.8800469 414.216000
    291    303    304     1   109.8000471 387.438400
    291    303    305     1   109.8000471 387.438400
    292    291    303     1   109.5600471 388.275200
    292    291    293     1   108.4600466 328.025600
    293    291    303     1   109.5600471 388.275200
    294    306    307     1   109.8000471 387.438400
    294    306    308     1   109.8000471 387.438400
    295    294    306     1   109.5600471 388.275200
    295    294    296     1   108.4600466 328.025600
    296    294    306     1   109.5600471 388.275200
    297    300    301     1   109.8000471 387.438400
    297    300    302     1   109.8000471 387.438400
    298    297    300     1   109.5600471 388.275200
    298    297    299     1   108.4600466 328.025600
    299    297    300     1   109.5600471 388.275200
    300    309    310     1   109.5600471 388.275200
    300    309    311     1   109.5600471 388.275200
    301    300    309     1   109.8000471 387.438400
    301    300    302     1   107.5800459 329.699200
    302    300    309     1   109.8000471 387.438400
    303    315    316     1   109.5600471 388.275200
    303    315    317     1   109.5600471 388.275200
    304    303    315     1   109.8000471 387.438400
    304    303    305     1   107.5800459 329.699200
    305    303    315     1   109.8000471 387.438400
    306    312    313     1   109.5600471 388.275200
    306    312    314     1   109.5600471 388.275200
    307    306    312     1   109.8000471 387.438400
    307    306    308     1   107.5800459 329.699200
    308    306    312     1   109.8000471 387.438400
    310    309    318     1   109.7800468 425.094400
    310    309    311     1   108.4600466 328.025600
    311    309    318     1   109.7800468 425.094400
    313    312    666     1   109.7800468 425.094400
    313    312    314     1   108.4600466 328.025600
    314    312    666     1   109.7800468 425.094400
    316    315    695     1   109.7800468 425.094400
    316    315    317     1   108.4600466 328.025600
    317    315    695     1   109.7800468 425.094400
    319    320    321     1   109.8800469 414.216000
    319    320    322     1   109.8800469 414.216000
    319    323    324     1   109.8800469 414.216000
    319    323    325     1   109.8800469 414.216000
    319    326    327     1   109.8800469 414.216000
    319    326    328     1   109.8800469 414.216000
    320    332    333     1   109.8000471 387.438400
    320    332    334     1   109.8000471 387.438400
    321    320    332     1   109.5600471 388.275200
    321    320    322     1   108.4600466 328.025600
    322    320    332     1   109.5600471 388.275200
    323    335    336     1   109.8000471 387.438400
    323    335    337     1   109.8000471 387.438400
    324    323    335     1   109.5600471 388.275200
    324    323    325     1   108.4600466 328.025600
    325    323    335     1   109.5600471 388.275200
    326    329    330     1   109.8000471 387.438400
    326    329    331     1   109.8000471 387.438400
    327    326    329     1   109.5600471 388.275200
    327    326    328     1   108.4600466 328.025600
    328    326    329     1   109.5600471 388.275200
    329    338    339     1   109.5600471 388.275200
    329    338    340     1   109.5600471 388.275200
    330    329    338     1   109.8000471 387.438400
    330    329    331     1   107.5800459 329.699200
    331    329    338     1   109.8000471 387.438400
    332    344    345     1   109.5600471 388.275200
    332    344    346     1   109.5600471 388.275200
    333    332    344     1   109.8000471 387.438400
    333    332    334     1   107.5800459 329.699200
    334    332    344     1   109.8000471 387.438400
    335    341    342     1   109.5600471 388.275200
    335    341    343     1   109.5600471 388.275200
    336    335    341     1   109.8000471 387.438400
    336    335    337     1   107.5800459 329.699200
    337    335    341     1   109.8000471 387.438400
    339    338    347     1   109.7800468 425.094400
    339    338    340     1   108.4600466 328.025600
    340    338    347     1   109.7800468 425.094400
    342    341    724     1   109.7800468 425.094400
    342    341    343     1   108.4600466 328.025600
    343    341    724     1   109.7800468 425.094400
    345    344    753     1   109.7800468 425.094400
    345    344    346     1   108.4600466 328.025600
    346    344    753     1   109.7800468 425.094400
    348    349    350     1   109.8800469 414.216000
    348    349    351     1   109.8800469 414.216000
    348    352    353     1   109.8800469 414.216000
    348    352    354     1   109.8800469 414.216000
    348    355    356     1   109.8800469 414.216000
    348    355    357     1   109.8800469 414.216000
    349    361    362     1   109.8000471 387.438400
    349    361    363     1   109.8000471 387.438400
    350    349    361     1   109.5600471 388.275200
    350    349    351     1   108.4600466 328.025600
    351    349    361     1   109.5600471 388.275200
    352    364    365     1   109.8000471 387.438400
    352    364    366     1   109.8000471 387.438400
    353    352    364     1   109.5600471 388.275200
    353    352    354     1   108.4600466 328.025600
    354    352    364     1   109.5600471 388.275200
    355    358    359     1   109.8000471 387.438400
    355    358    360     1   109.8000471 387.438400
    356    355    358     1   109.5600471 388.275200
    356    355    357     1   108.4600466 328.025600
    357    355    358     1   109.5600471 388.275200
    358    367    368     1   109.5600471 388.275200
    358    367    369     1   109.5600471 388.275200
    359    358    367     1   109.8000471 387.438400
    359    358    360     1   107.5800459 329.699200
    360    358    367     1   109.8000471 387.438400
    361    373    374     1   109.5600471 388.275200
    361    373    375     1   109.5600471 388.275200
    362    361    373     1   109.8000471 387.438400
    362    361    363     1   107.5800459 329.699200
    363    361    373     1   109.8000471 387.438400
    364    370    371     1   109.5600471 388.275200
    364    370    372     1   109.5600471 388.275200
    365    364    370     1   109.8000471 387.438400
    365    364    366     1   107.5800459 329.699200
    366    364    370     1   109.8000471 387.438400
    368    367    376     1   109.7800468 425.094400
    368    367    369     1   108.4600466 328.025600
    369    367    376     1   109.7800468 425.094400
    371    370    782     1   109.7800468 425.094400
    371    370    372     1   108.4600466 328.025600
    372    370    782     1   109.7800468 425.094400
    374    373    811     1   109.7800468 425.094400
    374    373    375     1   108.4600466 328.025600
    375    373    811     1   109.7800468 425.094400
    377    378    379     1   109.8800469 414.216000
    377    378    380     1   109.8800469 414.216000
    377    381    382     1   109.8800469 414.216000
    377    381    383     1   109.8800469 414.216000
    377    384    385     1   109.8800469 414.216000
    377    384    386     1   109.8800469 414.216000
    378    390    391     1   109.8000471 387.438400
    378    390    392     1   109.8000471 387.438400
    379    378    390     1   109.5600471 388.275200
    379    378    380     1   108.4600466 328.025600
    380    378    390     1   109.5600471 388.275200
    381    393    394     1   109.8000471 387.438400
    381    393    395     1   109.8000471 387.438400
    382    381    393     1   109.5600471 388.275200
    382    381    383     1   108.4600466 328.025600
    383    381    393     1   109.5600471 388.275200
    384    387    388     1   109.8000471 387.438400
    384    387    389     1   109.8000471 387.438400
    385    384    387     1   109.5600471 388.275200
    385    384    386     1   108.4600466 328.025600
    386    384    387     1   109.5600471 388.275200
    387    396    397     1   109.5600471 388.275200
    387    396    398     1   109.5600471 388.275200
    388    387    396     1   109.8000471 387.438400
    388    387    389     1   107.5800459 329.699200
    389    387    396     1   109.8000471 387.438400
    390    402    403     1   109.5600471 388.275200
    390    402    404     1   109.5600471 388.275200
    391    390    402     1   109.8000471 387.438400
    391    390    392     1   107.5800459 329.699200
    392    390    402     1   109.8000471 387.438400
    393    399    400     1   109.5600471 388.275200
    393    399    401     1   109.5600471 388.275200
    394    393    399     1   109.8000471 387.438400
    394    393    395     1   107.5800459 329.699200
    395    393    399     1   109.8000471 387.438400
    397    396    405     1   109.7800468 425.094400
    397    396    398     1   108.4600466 328.025600
    398    396    405     1   109.7800468 425.094400
    400    399    840     1   109.7800468 425.094400
    400    399    401     1   108.4600466 328.025600
    401    399    840     1   109.7800468 425.094400
    403    402    869     1   109.7800468 425.094400
    403    402    404     1   108.4600466 328.025600
    404    402    869     1   109.7800468 425.094400
    406    407    408     1   109.8800469 414.216000
    406    407    409     1   109.8800469 414.216000
    406    410    411     1   109.8800469 414.216000
    406    410    412     1   109.8800469 414.216000
    406    413    414     1   109.8800469 414.216000
    406    413    415     1   109.8800469 414.216000
    407    419    420     1   109.8000471 387.438400
    407    419    421     1   109.8000471 387.438400
    408    407    419     1   109.5600471 388.275200
    408    407    409     1   108.4600466 328.025600
    409    407    419     1   109.5600471 388.275200
    410    422    423     1   109.8000471 387.438400
    410    422    424     1   109.8000471 387.438400
    411    410    422     1   109.5600471 388.275200
    411    410    412     1   108.4600466 328.025600
    412    410    422     1   109.5600471 388.275200
    413    416    417     1   109.8000471 387.438400
    413    416    418     1   109.8000471 387.438400
    414    413    416     1   109.5600471 388.275200
    414    413    415     1   108.4600466 328.025600
    415    413    416     1   109.5600471 388.275200
    416    425    426     1   109.5600471 388.275200
    416    425    427     1   109.5600471 388.275200
    417    416    425     1   109.8000471 387.438400
    417    416    418     1   107.5800459 329.699200
    418    416    425     1   109.8000471 387.438400
    419    431    432     1   109.5600471 388.275200
    419    431    433     1   109.5600471 388.275200
    420    419    431     1   109.8000471 387.438400
    420    419    421     1   107.5800459 329.699200
    421    419    431     1   109.8000471 387.438400
    422    428    429     1   109.5600471 388.275200
    422    428    430     1   109.5600471 388.275200
    423    422    428     1   109.8000471 387.438400
    423    422    424     1   107.5800459 329.699200
    424    422    428     1   109.8000471 387.438400
    426    425    434     1   109.7800468 425.094400
    426    425    427     1   108.4600466 328.025600
    427    425    434     1   109.7800468 425.094400
    429    428    898     1   109.7800468 425.094400
    429    428    430     1   108.4600466 328.025600
    430    428    898     1   109.7800468 425.094400
    432    431    927     1   109.7800468 425.094400
    432    431    433     1   108.4600466 328.025600
    433    431    927     1   109.7800468 425.094400
    435    436    437     1   109.8800469 414.216000
    435    436    438     1   109.8800469 414.216000
    435    439    440     1   109.8800469 414.216000
    435    439    441     1   109.8800469 414.216000
    435    442    443     1   109.8800469 414.216000
    435    442    444     1   109.8800469 414.216000
    436    448    449     1   109.8000471 387.438400
    436    448    450     1   109.8000471 387.438400
    437    436    448     1   109.5600471 388.275200
    437    436    438     1   108.4600466 328.025600
    438    436    448     1   109.5600471 388.275200
    439    451    452     1   109.8000471 387.438400
    439    451    453     1   109.8000471 387.438400
    440    439    451     1   109.5600471 388.275200
    440    439    441     1   108.4600466 328.025600
    441    439    451     1   109.5600471 388.275200
    442    445    446     1   109.8000471 387.438400
    442    445    447     1   109.8000471 387.438400
    443    442    445     1   109.5600471 388.275200
    443    442    444     1   108.4600466 328.025600
    444    442    445     1   109.5600471 388.275200
    445    454    455     1   109.5600471 388.275200
    445    454    456     1   109.5600471 388.275200
    446    445    454     1   109.8000471 387.438400
    446    445    447     1   107.5800459 329.699200
    447    445    454     1   109.8000471 387.438400
    448    460    461     1   109.5600471 388.275200
    448    460    462     1   109.5600471 388.275200
    449    448    460     1   109.8000471 387.438400
    449    448    450     1   107.5800459 329.699200
    450    448    460     1   109.8000471 387.438400
    451    457    458     1   109.5600471 388.275200
    451    457    459     1   109.5600471 388.275200
    452    451    457     1   109.8000471 387.438400
    452    451    453     1   107.5800459 329.699200
    453    451    457     1   109.8000471 387.438400
    455    454    463     1   109.7800468 425.094400
    455    454    456     1   108.4600466 328.025600
    456    454    463     1   109.7800468 425.094400
    458    457    956     1   109.7800468 425.094400
    458    457    459     1   108.4600466 328.025600
    459    457    956     1   109.7800468 425.094400
    461    460    985     1   109.7800468 425.094400
    461    460    462     1   108.4600466 328.025600
    462    460    985     1   109.7800468 425.094400
    464    465    466     1   109.8800469 414.216000
    464    465    467     1   109.8800469 414.216000
    464    468    469     1   109.8800469 414.216000
    464    468    470     1   109.8800469 414.216000
    464    471    472     1   109.8800469 414.216000
    464    471    473     1   109.8800469 414.216000
    465    477    478     1   109.8000471 387.438400
    465    477    479     1   109.8000471 387.438400
    466    465    477     1   109.5600471 388.275200
    466    465    467     1   108.4600466 328.025600
    467    465    477     1   109.5600471 388.275200
    468    480    481     1   109.8000471 387.438400
    468    480    482     1   109.8000471 387.438400
    469    468    480     1   109.5600471 388.275200
    469    468    470     1   108.4600466 328.025600
    470    468    480     1   109.5600471 388.275200
    471    474    475     1   109.8000471 387.438400
    471    474    476     1   109.8000471 387.438400
    472    471    474     1   109.5600471 388.275200
    472    471    473     1   108.4600466 328.025600
    473    471    474     1   109.5600471 388.275200
    474    483    484     1   109.5600471 388.275200
    474    483    485     1   109.5600471 388.275200
    475    474    483     1   109.8000471 387.438400
    475    474    476     1   107.5800459 329.699200
    476    474    483     1   109.8000471 387.438400
    477    489    490     1   109.5600471 388.275200
    477    489    491     1   109.5600471 388.275200
    478    477    489     1   109.8000471 387.438400
    478    477    479     1   107.5800459 329.699200
    479    477    489     1   109.8000471 387.438400
    480    486    487     1   109.5600471 388.275200
    480    486    488     1   109.5600471 388.275200
    481    480    486     1   109.8000471 387.438400
    481    480    482     1   107.5800459 329.699200
    482    480    486     1   109.8000471 387.438400
    484    483    492     1   109.7800468 425.094400
    484    483    485     1   108.4600466 328.025600
    485    483    492     1   109.7800468 425.094400
    487    486   1014     1   109.7800468 425.094400
    487    486    488     1   108.4600466 328.025600
    488    486   1014     1   109.7800468 425.094400
    490    489   1043     1   109.7800468 425.094400
    490    489    491     1   108.4600466 328.025600
    491    489   1043     1   109.7800468 425.094400
    493    494    495     1   109.8800469 414.216000
    493    494    496     1   109.8800469 414.216000
    493    497    498     1   109.8800469 414.216000
    493    497    499     1   109.8800469 414.216000
    493    500    501     1   109.8800469 414.216000
    493    500    502     1   109.8800469 414.216000
    494    506    507     1   109.8000471 387.438400
    494    506    508     1   109.8000471 387.438400
    495    494    506     1   109.5600471 388.275200
    495    494    496     1   108.4600466 328.025600
    496    494    506     1   109.5600471 388.275200
    497    509    510     1   109.8000471 387.438400
    497    509    511     1   109.8000471 387.438400
    498    497    509     1   109.5600471 388.275200
    498    497    499     1   108.4600466 328.025600
    499    497    509     1   109.5600471 388.275200
    500    503    504     1   109.8000471 387.438400
    500    503    505     1   109.8000471 387.438400
    501    500    503     1   109.5600471 388.275200
    501    500    502     1   108.4600466 328.025600
    502    500    503     1   109.5600471 388.275200
    503    512    513     1   109.5600471 388.275200
    503    512    514     1   109.5600471 388.275200
    504    503    512     1   109.8000471 387.438400
    504    503    505     1   107.5800459 329.699200
    505    503    512     1   109.8000471 387.438400
    506    518    519     1   109.5600471 388.275200
    506    518    520     1   109.5600471 388.275200
    507    506    518     1   109.8000471 387.438400
    507    506    508     1   107.5800459 329.699200
    508    506    518     1   109.8000471 387.438400
    509    515    516     1   109.5600471 388.275200
    509    515    517     1   109.5600471 388.275200
    510    509    515     1   109.8000471 387.438400
    510    509    511     1   107.5800459 329.699200
    511    509    515     1   109.8000471 387.438400
    513    512    521     1   109.7800468 425.094400
    513    512    514     1   108.4600466 328.025600
    514    512    521     1   109.7800468 425.094400
    516    515   1072     1   109.7800468 425.094400
    516    515    517     1   108.4600466 328.025600
    517    515   1072     1   109.7800468 425.094400
    519    518   1101     1   109.7800468 425.094400
    519    518    520     1   108.4600466 328.025600
    520    518   1101     1   109.7800468 425.094400
    522    523    524     1   109.8800469 414.216000
    522    523    525     1   109.8800469 414.216000
    522    526    527     1   109.8800469 414.216000
    522    526    528     1   109.8800469 414.216000
    522    529    530     1   109.8800469 414.216000
    522    529    531     1   109.8800469 414.216000
    523    535    536     1   109.8000471 387.438400
    523    535    537     1   109.8000471 387.438400
    524    523    535     1   109.5600471 388.275200
    524    523    525     1   108.4600466 328.025600
    525    523    535     1   109.5600471 388.275200
    526    538    539     1   109.8000471 387.438400
    526    538    540     1   109.8000471 387.438400
    527    526    538     1   109.5600471 388.275200
    527    526    528     1   108.4600466 328.025600
    528    526    538     1   109.5600471 388.275200
    529    532    533     1   109.8000471 387.438400
    529    532    534     1   109.8000471 387.438400
    530    529    532     1   109.5600471 388.275200
    530    529    531     1   108.4600466 328.025600
    531    529    532     1   109.5600471 388.275200
    532    541    542     1   109.5600471 388.275200
    532    541    543     1   109.5600471 388.275200
    533    532    541     1   109.8000471 387.438400
    533    532    534     1   107.5800459 329.699200
    534    532    541     1   109.8000471 387.438400
    535    547    548     1   109.5600471 388.275200
    535    547    549     1   109.5600471 388.275200
    536    535    547     1   109.8000471 387.438400
    536    535    537     1   107.5800459 329.699200
    537    535    547     1   109.8000471 387.438400
    538    544    545     1   109.5600471 388.275200
    538    544    546     1   109.5600471 388.275200
    539    538    544     1   109.8000471 387.438400
    539    538    540     1   107.5800459 329.699200
    540    538    544     1   109.8000471 387.438400
    542    541    550     1   109.7800468 425.094400
    542    541    543     1   108.4600466 328.025600
    543    541    550     1   109.7800468 425.094400
    545    544   1130     1   109.7800468 425.094400
    545    544    546     1   108.4600466 328.025600
    546    544   1130     1   109.7800468 425.094400
    548    547   1159     1   109.7800468 425.094400
    548    547    549     1   108.4600466 328.025600
    549    547   1159     1   109.7800468 425.094400
    551    552    553     1   109.8800469 414.216000
    551    552    554     1   109.8800469 414.216000
    551    555    556     1   109.8800469 414.216000
    551    555    557     1   109.8800469 414.216000
    551    558    559     1   109.8800469 414.216000
    551    558    560     1   109.8800469 414.216000
    552    564    565     1   109.8000471 387.438400
    552    564    566     1   109.8000471 387.438400
    553    552    564     1   109.5600471 388.275200
    553    552    554     1   108.4600466 328.025600
    554    552    564     1   109.5600471 388.275200
    555    567    568     1   109.8000471 387.438400
    555    567    569     1   109.8000471 387.438400
    556    555    567     1   109.5600471 388.275200
    556    555    557     1   108.4600466 328.025600
    557    555    567     1   109.5600471 388.275200
    558    561    562     1   109.8000471 387.438400
    558    561    563     1   109.8000471 387.438400
    559    558    561     1   109.5600471 388.275200
    559    558    560     1   108.4600466 328.025600
    560    558    561     1   109.5600471 388.275200
    561    570    571     1   109.5600471 388.275200
    561    570    572     1   109.5600471 388.275200
    562    561    570     1   109.8000471 387.438400
    562    561    563     1   107.5800459 329.699200
    563    561    570     1   109.8000471 387.438400
    564    576    577     1   109.5600471 388.275200
    564    576    578     1   109.5600471 388.275200
    565    564    576     1   109.8000471 387.438400
    565    564    566     1   107.5800459 329.699200
    566    564    576     1   109.8000471 387.438400
    567    573    574     1   109.5600471 388.275200
    567    573    575     1   109.5600471 388.275200
    568    567    573     1   109.8000471 387.438400
    568    567    569     1   107.5800459 329.699200
    569    567    573     1   109.8000471 387.438400
    571    570    579     1   109.7800468 425.094400
    571    570    572     1   108.4600466 328.025600
    572    570    579     1   109.7800468 425.094400
    574    573   1188     1   109.7800468 425.094400
    574    573    575     1   108.4600466 328.025600
    575    573   1188     1   109.7800468 425.094400
    577    576   1217     1   109.7800468 425.094400
    577    576    578     1   108.4600466 328.025600
    578    576   1217     1   109.7800468 425.094400
    580    581    582     1   109.8800469 414.216000
    580    581    583     1   109.8800469 414.216000
    580    584    585     1   109.8800469 414.216000
    580    584    586     1   109.8800469 414.216000
    580    587    588     1   109.8800469 414.216000
    580    587    589     1   109.8800469 414.216000
    581    593    594     1   109.8000471 387.438400
    581    593    595     1   109.8000471 387.438400
    582    581    593     1   109.5600471 388.275200
    582    581    583     1   108.4600466 328.025600
    583    581    593     1   109.5600471 388.275200
    584    596    597     1   109.8000471 387.438400
    584    596    598     1   109.8000471 387.438400
    585    584    596     1   109.5600471 388.275200
    585    584    586     1   108.4600466 328.025600
    586    584    596     1   109.5600471 388.275200
    587    590    591     1   109.8000471 387.438400
    587    590    592     1   109.8000471 387.438400
    588    587    590     1   109.5600471 388.275200
    588    587    589     1   108.4600466 328.025600
    589    587    590     1   109.5600471 388.275200
    590    599    600     1   109.5600471 388.275200
    590    599    601     1   109.5600471 388.275200
    591    590    599     1   109.8000471 387.438400
    591    590    592     1   107.5800459 329.699200
    592    590    599     1   109.8000471 387.438400
    593    605    606     1   109.5600471 388.275200
    593    605    607     1   109.5600471 388.275200
    594    593    605     1   109.8000471 387.438400
    594    593    595     1   107.5800459 329.699200
    595    593    605     1   109.8000471 387.438400
    596    602    603     1   109.5600471 388.275200
    596    602    604     1   109.5600471 388.275200
    597    596    602     1   109.8000471 387.438400
    597    596    598     1   107.5800459 329.699200
    598    596    602     1   109.8000471 387.438400
    600    599    608     1   109.7800468 425.094400
    600    599    601     1   108.4600466 328.025600
    601    599    608     1   109.7800468 425.094400
    603    602   1246     1   109.7800468 425.094400
    603    602    604     1   108.4600466 328.025600
    604    602   1246     1   109.7800468 425.094400
    606    605   1275     1   109.7800468 425.094400
    606    605    607     1   108.4600466 328.025600
    607    605   1275     1   109.7800468 425.094400
    609    610    611     1   109.8800469 414.216000
    609    610    612     1   109.8800469 414.216000
    609    613    614     1   109.8800469 414.216000
    609    613    615     1   109.8800469 414.216000
    609    616    617     1   109.8800469 414.216000
    609    616    618     1   109.8800469 414.216000
    610    622    623     1   109.8000471 387.438400
    610    622    624     1   109.8000471 387.438400
    611    610    622     1   109.5600471 388.275200
    611    610    612     1   108.4600466 328.025600
    612    610    622     1   109.5600471 388.275200
    613    625    626     1   109.8000471 387.438400
    613    625    627     1   109.8000471 387.438400
    614    613    625     1   109.5600471 388.275200
    614    613    615     1   108.4600466 328.025600
    615    613    625     1   109.5600471 388.275200
    616    619    620     1   109.8000471 387.438400
    616    619    621     1   109.8000471 387.438400
    617    616    619     1   109.5600471 388.275200
    617    616    618     1   108.4600466 328.025600
    618    616    619     1   109.5600471 388.275200
    619    628    629     1   109.5600471 388.275200
    619    628    630     1   109.5600471 388.275200
    620    619    628     1   109.8000471 387.438400
    620    619    621     1   107.5800459 329.699200
    621    619    628     1   109.8000471 387.438400
    622    634    635     1   109.5600471 388.275200
    622    634    636     1   109.5600471 388.275200
    623    622    634     1   109.8000471 387.438400
    623    622    624     1   107.5800459 329.699200
    624    622    634     1   109.8000471 387.438400
    625    631    632     1   109.5600471 388.275200
    625    631    633     1   109.5600471 388.275200
    626    625    631     1   109.8000471 387.438400
    626    625    627     1   107.5800459 329.699200
    627    625    631     1   109.8000471 387.438400
    629    628    637     1   109.7800468 425.094400
    629    628    630     1   108.4600466 328.025600
    630    628    637     1   109.7800468 425.094400
    632    631   1304     1   109.7800468 425.094400
    632    631    633     1   108.4600466 328.025600
    633    631   1304     1   109.7800468 425.094400
    635    634   1333     1   109.7800468 425.094400
    635    634    636     1   108.4600466 328.025600
    636    634   1333     1   109.7800468 425.094400
    638    639    640     1   109.8800469 414.216000
    638    639    641     1   109.8800469 414.216000
    638    642    643     1   109.8800469 414.216000
    638    642    644     1   109.8800469 414.216000
    638    645    646     1   109.8800469 414.216000
    638    645    647     1   109.8800469 414.216000
    639    651    652     1   109.8000471 387.438400
    639    651    653     1   109.8000471 387.438400
    640    639    651     1   109.5600471 388.275200
    640    639    641     1   108.4600466 328.025600
    641    639    651     1   109.5600471 388.275200
    642    654    655     1   109.8000471 387.438400
    642    654    656     1   109.8000471 387.438400
    643    642    654     1   109.5600471 388.275200
    643    642    644     1   108.4600466 328.025600
    644    642    654     1   109.5600471 388.275200
    645    648    649     1   109.8000471 387.438400
    645    648    650     1   109.8000471 387.438400
    646    645    648     1   109.5600471 388.275200
    646    645    647     1   108.4600466 328.025600
    647    645    648     1   109.5600471 388.275200
    648    657    658     1   109.5600471 388.275200
    648    657    659     1   109.5600471 388.275200
    649    648    657     1   109.8000471 387.438400
    649    648    650     1   107.5800459 329.699200
    650    648    657     1   109.8000471 387.438400
    651    663    664     1   109.5600471 388.275200
    651    663    665     1   109.5600471 388.275200
    652    651    663     1   109.8000471 387.438400
    652    651    653     1   107.5800459 329.699200
    653    651    663     1   109.8000471 387.438400
    654    660    661     1   109.5600471 388.275200
    654    660    662     1   109.5600471 388.275200
    655    654    660     1   109.8000471 387.438400
    655    654    656     1   107.5800459 329.699200
    656    654    660     1   109.8000471 387.438400
    658    657    666     1   109.7800468 425.094400
    658    657    659     1   108.4600466 328.025600
    659    657    666     1   109.7800468 425.094400
    661    660   1362     1   109.7800468 425.094400
    661    660    662     1   108.4600466 328.025600
    662    660   1362     1   109.7800468 425.094400
    664    663   1391     1   109.7800468 425.094400
    664    663    665     1   108.4600466 328.025600
    665    663   1391     1   109.7800468 425.094400
    667    668    669     1   109.8800469 414.216000
    667    668    670     1   109.8800469 414.216000
    667    671    672     1   109.8800469 414.216000
    667    671    673     1   109.8800469 414.216000
    667    674    675     1   109.8800469 414.216000
    667    674    676     1   109.8800469 414.216000
    668    680    681     1   109.8000471 387.438400
    668    680    682     1   109.8000471 387.438400
    669    668    680     1   109.5600471 388.275200
    669    668    670     1   108.4600466 328.025600
    670    668    680     1   109.5600471 388.275200
    671    683    684     1   109.8000471 387.438400
    671    683    685     1   109.8000471 387.438400
    672    671    683     1   109.5600471 388.275200
    672    671    673     1   108.4600466 328.025600
    673    671    683     1   109.5600471 388.275200
    674    677    678     1   109.8000471 387.438400
    674    677    679     1   109.8000471 387.438400
    675    674    677     1   109.5600471 388.275200
    675    674    676     1   108.4600466 328.025600
    676    674    677     1   109.5600471 388.275200
    677    686    687     1   109.5600471 388.275200
    677    686    688     1   109.5600471 388.275200
    678    677    686     1   109.8000471 387.438400
    678    677    679     1   107.5800459 329.699200
    679    677    686     1   109.8000471 387.438400
    680    692    693     1   109.5600471 388.275200
    680    692    694     1   109.5600471 388.275200
    681    680    692     1   109.8000471 387.438400
    681    680    682     1   107.5800459 329.699200
    682    680    692     1   109.8000471 387.438400
    683    689    690     1   109.5600471 388.275200
    683    689    691     1   109.5600471 388.275200
    684    683    689     1   109.8000471 387.438400
    684    683    685     1   107.5800459 329.699200
    685    683    689     1   109.8000471 387.438400
    687    686    695     1   109.7800468 425.094400
    687    686    688     1   108.4600466 328.025600
    688    686    695     1   109.7800468 425.094400
    690    689   1420     1   109.7800468 425.094400
    690    689    691     1   108.4600466 328.025600
    691    689   1420     1   109.7800468 425.094400
    693    692   1449     1   109.7800468 425.094400
    693    692    694     1   108.4600466 328.025600
    694    692   1449     1   109.7800468 425.094400
    696    697    698     1   109.8800469 414.216000
    696    697    699     1   109.8800469 414.216000
    696    700    701     1   109.8800469 414.216000
    696    700    702     1   109.8800469 414.216000
    696    703    704     1   109.8800469 414.216000
    696    703    705     1   109.8800469 414.216000
    697    709    710     1   109.8000471 387.438400
    697    709    711     1   109.8000471 387.438400
    698    697    709     1   109.5600471 388.275200
    698    697    699     1   108.4600466 328.025600
    699    697    709     1   109.5600471 388.275200
    700    712    713     1   109.8000471 387.438400
    700    712    714     1   109.8000471 387.438400
    701    700    712     1   109.5600471 388.275200
    701    700    702     1   108.4600466 328.025600
    702    700    712     1   109.5600471 388.275200
    703    706    707     1   109.8000471 387.438400
    703    706    708     1   109.8000471 387.438400
    704    703    706     1   109.5600471 388.275200
    704    703    705     1   108.4600466 328.025600
    705    703    706     1   109.5600471 388.275200
    706    715    716     1   109.5600471 388.275200
    706    715    717     1   109.5600471 388.275200
    707    706    715     1   109.8000471 387.438400
    707    706    708     1   107.5800459 329.699200
    708    706    715     1   109.8000471 387.438400
    709    721    722     1   109.5600471 388.275200
    709    721    723     1   109.5600471 388.275200
    710    709    721     1   109.8000471 387.438400
    710    709    711     1   107.5800459 329.699200
    711    709    721     1   109.8000471 387.438400
    712    718    719     1   109.5600471 388.275200
    712    718    720     1   109.5600471 388.275200
    713    712    718     1   109.8000471 387.438400
    713    712    714     1   107.5800459 329.699200
    714    712    718     1   109.8000471 387.438400
    716    715    724     1   109.7800468 425.094400
    716    715    717     1   108.4600466 328.025600
    717    715    724     1   109.7800468 425.094400
    719    718   1478     1   109.7800468 425.094400
    719    718    720     1   108.4600466 328.025600
    720    718   1478     1   109.7800468 425.094400
    722    721   1507     1   109.7800468 425.094400
    722    721    723     1   108.4600466 328.025600
    723    721   1507     1   109.7800468 425.094400
    725    726    727     1   109.8800469 414.216000
    725    726    728     1   109.8800469 414.216000
    725    729    730     1   109.8800469 414.216000
    725    729    731     1   109.8800469 414.216000
    725    732    733     1   109.8800469 414.216000
    725    732    734     1   109.8800469 414.216000
    726    738    739     1   109.8000471 387.438400
    726    738    740     1   109.8000471 387.438400
    727    726    738     1   109.5600471 388.275200
    727    726    728     1   108.4600466 328.025600
    728    726    738     1   109.5600471 388.275200
    729    741    742     1   109.8000471 387.438400
    729    741    743     1   109.8000471 387.438400
    730    729    741     1   109.5600471 388.275200
    730    729    731     1   108.4600466 328.025600
    731    729    741     1   109.5600471 388.275200
    732    735    736     1   109.8000471 387.438400
    732    735    737     1   109.8000471 387.438400
    733    732    735     1   109.5600471 388.275200
    733    732    734     1   108.4600466 328.025600
    734    732    735     1   109.5600471 388.275200
    735    744    745     1   109.5600471 388.275200
    735    744    746     1   109.5600471 388.275200
    736    735    744     1   109.8000471 387.438400
    736    735    737     1   107.5800459 329.699200
    737    735    744     1   109.8000471 387.438400
    738    750    751     1   109.5600471 388.275200
    738    750    752     1   109.5600471 388.275200
    739    738    750     1   109.8000471 387.438400
    739    738    740     1   107.5800459 329.699200
    740    738    750     1   109.8000471 387.438400
    741    747    748     1   109.5600471 388.275200
    741    747    749     1   109.5600471 388.275200
    742    741    747     1   109.8000471 387.438400
    742    741    743     1   107.5800459 329.699200
    743    741    747     1   109.8000471 387.438400
    745    744    753     1   109.7800468 425.094400
    745    744    746     1   108.4600466 328.025600
    746    744    753     1   109.7800468 425.094400
    748    747   1536     1   109.7800468 425.094400
    748    747    749     1   108.4600466 328.025600
    749    747   1536     1   109.7800468 425.094400
    751    750   1565     1   109.7800468 425.094400
    751    750    752     1   108.4600466 328.025600
    752    750   1565     1   109.7800468 425.094400
    754    755    756     1   109.8800469 414.216000
    754    755    757     1   109.8800469 414.216000
    754    758    759     1   109.8800469 414.216000
    754    758    760     1   109.8800469 414.216000
    754    761    762     1   109.8800469 414.216000
    754    761    763     1   109.8800469 414.216000
    755    767    768     1   109.8000471 387.438400
    755    767    769     1   109.8000471 387.438400
    756    755    767     1   109.5600471 388.275200
    756    755    757     1   108.4600466 328.025600
    757    755    767     1   109.5600471 388.275200
    758    770    771     1   109.8000471 387.438400
    758    770    772     1   109.8000471 387.438400
    759    758    770     1   109.5600471 388.275200
    759    758    760     1   108.4600466 328.025600
    760    758    770     1   109.5600471 388.275200
    761    764    765     1   109.8000471 387.438400
    761    764    766     1   109.8000471 387.438400
    762    761    764     1   109.5600471 388.275200
    762    761    763     1   108.4600466 328.025600
    763    761    764     1   109.5600471 388.275200
    764    773    774     1   109.5600471 388.275200
    764    773    775     1   109.5600471 388.275200
    765    764    773     1   109.8000471 387.438400
    765    764    766     1   107.5800459 329.699200
    766    764    773     1   109.8000471 387.438400
    767    779    780     1   109.5600471 388.275200
    767    779    781     1   109.5600471 388.275200
    768    767    779     1   109.8000471 387.438400
    768    767    769     1   107.5800459 329.699200
    769    767    779     1   109.8000471 387.438400
    770    776    777     1   109.5600471 388.275200
    770    776    778     1   109.5600471 388.275200
    771    770    776     1   109.8000471 387.438400
    771    770    772     1   107.5800459 329.699200
    772    770    776     1   109.8000471 387.438400
    774    773    782     1   109.7800468 425.094400
    774    773    775     1   108.4600466 328.025600
    775    773    782     1   109.7800468 425.094400
    777    776   1594     1   109.7800468 425.094400
    777    776    778     1   108.4600466 328.025600
    778    776   1594     1   109.7800468 425.094400
    780    779   1623     1   109.7800468 425.094400
    780    779    781     1   108.4600466 328.025600
    781    779   1623     1   109.7800468 425.094400
    783    784    785     1   109.8800469 414.216000
    783    784    786     1   109.8800469 414.216000
    783    787    788     1   109.8800469 414.216000
    783    787    789     1   109.8800469 414.216000
    783    790    791     1   109.8800469 414.216000
    783    790    792     1   109.8800469 414.216000
    784    796    797     1   109.8000471 387.438400
    784    796    798     1   109.8000471 387.438400
    785    784    796     1   109.5600471 388.275200
    785    784    786     1   108.4600466 328.025600
    786    784    796     1   109.5600471 388.275200
    787    799    800     1   109.8000471 387.438400
    787    799    801     1   109.8000471 387.438400
    788    787    799     1   109.5600471 388.275200
    788    787    789     1   108.4600466 328.025600
    789    787    799     1   109.5600471 388.275200
    790    793    794     1   109.8000471 387.438400
    790    793    795     1   109.8000471 387.438400
    791    790    793     1   109.5600471 388.275200
    791    790    792     1   108.4600466 328.025600
    792    790    793     1   109.5600471 388.275200
    793    802    803     1   109.5600471 388.275200
    793    802    804     1   109.5600471 388.275200
    794    793    802     1   109.8000471 387.438400
    794    793    795     1   107.5800459 329.699200
    795    793    802     1   109.8000471 387.438400
    796    808    809     1   109.5600471 388.275200
    796    808    810     1   109.5600471 388.275200
    797    796    808     1   109.8000471 387.438400
    797    796    798     1   107.5800459 329.699200
    798    796    808     1   109.8000471 387.438400
    799    805    806     1   109.5600471 388.275200
    799    805    807     1   109.5600471 388.275200
    800    799    805     1   109.8000471 387.438400
    800    799    801     1   107.5800459 329.699200
    801    799    805     1   109.8000471 387.438400
    803    802    811     1   109.7800468 425.094400
    803    802    804     1   108.4600466 328.025600
    804    802    811     1   109.7800468 425.094400
    806    805   1652     1   109.7800468 425.094400
    806    805    807     1   108.4600466 328.025600
    807    805   1652     1   109.7800468 425.094400
    809    808   1681     1   109.7800468 425.094400
    809    808    810     1   108.4600466 328.025600
    810    808   1681     1   109.7800468 425.094400
    812    813    814     1   109.8800469 414.216000
    812    813    815     1   109.8800469 414.216000
    812    816    817     1   109.8800469 414.216000
    812    816    818     1   109.8800469 414.216000
    812    819    820     1   109.8800469 414.216000
    812    819    821     1   109.8800469 414.216000
    813    825    826     1   109.8000471 387.438400
    813    825    827     1   109.8000471 387.438400
    814    813    825     1   109.5600471 388.275200
    814    813    815     1   108.4600466 328.025600
    815    813    825     1   109.5600471 388.275200
    816    828    829     1   109.8000471 387.438400
    816    828    830     1   109.8000471 387.438400
    817    816    828     1   109.5600471 388.275200
    817    816    818     1   108.4600466 328.025600
    818    816    828     1   109.5600471 388.275200
    819    822    823     1   109.8000471 387.438400
    819    822    824     1   109.8000471 387.438400
    820    819    822     1   109.5600471 388.275200
    820    819    821     1   108.4600466 328.025600
    821    819    822     1   109.5600471 388.275200
    822    831    832     1   109.5600471 388.275200
    822    831    833     1   109.5600471 388.275200
    823    822    831     1   109.8000471 387.438400
    823    822    824     1   107.5800459 329.699200
    824    822    831     1   109.8000471 387.438400
    825    837    838     1   109.5600471 388.275200
    825    837    839     1   109.5600471 388.275200
    826    825    837     1   109.8000471 387.438400
    826    825    827     1   107.5800459 329.699200
    827    825    837     1   109.8000471 387.438400
    828    834    835     1   109.5600471 388.275200
    828    834    836     1   109.5600471 388.275200
    829    828    834     1   109.8000471 387.438400
    829    828    830     1   107.5800459 329.699200
    830    828    834     1   109.8000471 387.438400
    832    831    840     1   109.7800468 425.094400
    832    831    833     1   108.4600466 328.025600
    833    831    840     1   109.7800468 425.094400
    835    834   1710     1   109.7800468 425.094400
    835    834    836     1   108.4600466 328.025600
    836    834   1710     1   109.7800468 425.094400
    838    837   1739     1   109.7800468 425.094400
    838    837    839     1   108.4600466 328.025600
    839    837   1739     1   109.7800468 425.094400
    841    842    843     1   109.8800469 414.216000
    841    842    844     1   109.8800469 414.216000
    841    845    846     1   109.8800469 414.216000
    841    845    847     1   109.8800469 414.216000
    841    848    849     1   109.8800469 414.216000
    841    848    850     1   109.8800469 414.216000
    842    854    855     1   109.8000471 387.438400
    842    854    856     1   109.8000471 387.438400
    843    842    854     1   109.5600471 388.275200
    843    842    844     1   108.4600466 328.025600
    844    842    854     1   109.5600471 388.275200
    845    857    858     1   109.8000471 387.438400
    845    857    859     1   109.8000471 387.438400
    846    845    857     1   109.5600471 388.275200
    846    845    847     1   108.4600466 328.025600
    847    845    857     1   109.5600471 388.275200
    848    851    852     1   109.8000471 387.438400
    848    851    853     1   109.8000471 387.438400
    849    848    851     1   109.5600471 388.275200
    849    848    850     1   108.4600466 328.025600
    850    848    851     1   109.5600471 388.275200
    851    860    861     1   109.5600471 388.275200
    851    860    862     1   109.5600471 388.275200
    852    851    860     1   109.8000471 387.438400
    852    851    853     1   107.5800459 329.699200
    853    851    860     1   109.8000471 387.438400
    854    866    867     1   109.5600471 388.275200
    854    866    868     1   109.5600471 388.275200
    855    854    866     1   109.8000471 387.438400
    855    854    856     1   107.5800459 329.699200
    856    854    866     1   109.8000471 387.438400
    857    863    864     1   109.5600471 388.275200
    857    863    865     1   109.5600471 388.275200
    858    857    863     1   109.8000471 387.438400
    858    857    859     1   107.5800459 329.699200
    859    857    863     1   109.8000471 387.438400
    861    860    869     1   109.7800468 425.094400
    861    860    862     1   108.4600466 328.025600
    862    860    869     1   109.7800468 425.094400
    864    863   1768     1   109.7800468 425.094400
    864    863    865     1   108.4600466 328.025600
    865    863   1768     1   109.7800468 425.094400
    867    866   1797     1   109.7800468 425.094400
    867    866    868     1   108.4600466 328.025600
    868    866   1797     1   109.7800468 425.094400
    870    871    872     1   109.8800469 414.216000
    870    871    873     1   109.8800469 414.216000
    870    874    875     1   109.8800469 414.216000
    870    874    876     1   109.8800469 414.216000
    870    877    878     1   109.8800469 414.216000
    870    877    879     1   109.8800469 414.216000
    871    883    884     1   109.8000471 387.438400
    871    883    885     1   109.8000471 387.438400
    872    871    883     1   109.5600471 388.275200
    872    871    873     1   108.4600466 328.025600
    873    871    883     1   109.5600471 388.275200
    874    886    887     1   109.8000471 387.438400
    874    886    888     1   109.8000471 387.438400
    875    874    886     1   109.5600471 388.275200
    875    874    876     1   108.4600466 328.025600
    876    874    886     1   109.5600471 388.275200
    877    880    881     1   109.8000471 387.438400
    877    880    882     1   109.8000471 387.438400
    878    877    880     1   109.5600471 388.275200
    878    877    879     1   108.4600466 328.025600
    879    877    880     1   109.5600471 388.275200
    880    889    890     1   109.5600471 388.275200
    880    889    891     1   109.5600471 388.275200
    881    880    889     1   109.8000471 387.438400
    881    880    882     1   107.5800459 329.699200
    882    880    889     1   109.8000471 387.438400
    883    895    896     1   109.5600471 388.275200
    883    895    897     1   109.5600471 388.275200
    884    883    895     1   109.8000471 387.438400
    884    883    885     1   107.5800459 329.699200
    885    883    895     1   109.8000471 387.438400
    886    892    893     1   109.5600471 388.275200
    886    892    894     1   109.5600471 388.275200
    887    886    892     1   109.8000471 387.438400
    887    886    888     1   107.5800459 329.699200
    888    886    892     1   109.8000471 387.438400
    890    889    898     1   109.7800468 425.094400
    890    889    891     1   108.4600466 328.025600
    891    889    898     1   109.7800468 425.094400
    893    892   1826     1   109.7800468 425.094400
    893    892    894     1   108.4600466 328.025600
    894    892   1826     1   109.7800468 425.094400
    896    895   1855     1   109.7800468 425.094400
    896    895    897     1   108.4600466 328.025600
    897    895   1855     1   109.7800468 425.094400
    899    900    901     1   109.8800469 414.216000
    899    900    902     1   109.8800469 414.216000
    899    903    904     1   109.8800469 414.216000
    899    903    905     1   109.8800469 414.216000
    899    906    907     1   109.8800469 414.216000
    899    906    908     1   109.8800469 414.216000
    900    912    913     1   109.8000471 387.438400
    900    912    914     1   109.8000471 387.438400
    901    900    912     1   109.5600471 388.275200
    901    900    902     1   108.4600466 328.025600
    902    900    912     1   109.5600471 388.275200
    903    915    916     1   109.8000471 387.438400
    903    915    917     1   109.8000471 387.438400
    904    903    915     1   109.5600471 388.275200
    904    903    905     1   108.4600466 328.025600
    905    903    915     1   109.5600471 388.275200
    906    909    910     1   109.8000471 387.438400
    906    909    911     1   109.8000471 387.438400
    907    906    909     1   109.5600471 388.275200
    907    906    908     1   108.4600466 328.025600
    908    906    909     1   109.5600471 388.275200
    909    918    919     1   109.5600471 388.275200
    909    918    920     1   109.5600471 388.275200
    910    909    918     1   109.8000471 387.438400
    910    909    911     1   107.5800459 329.699200
    911    909    918     1   109.8000471 387.438400
    912    924    925     1   109.5600471 388.275200
    912    924    926     1   109.5600471 388.275200
    913    912    924     1   109.8000471 387.438400
    913    912    914     1   107.5800459 329.699200
    914    912    924     1   109.8000471 387.438400
    915    921    922     1   109.5600471 388.275200
    915    921    923     1   109.5600471 388.275200
    916    915    921     1   109.8000471 387.438400
    916    915    917     1   107.5800459 329.699200
    917    915    921     1   109.8000471 387.438400
    919    918    927     1   109.7800468 425.094400
    919    918    920     1   108.4600466 328.025600
    920    918    927     1   109.7800468 425.094400
    922    921   1884     1   109.7800468 425.094400
    922    921    923     1   108.4600466 328.025600
    923    921   1884     1   109.7800468 425.094400
    925    924   1913     1   109.7800468 425.094400
    925    924    926     1   108.4600466 328.025600
    926    924   1913     1   109.7800468 425.094400
    928    929    930     1   109.8800469 414.216000
    928    929    931     1   109.8800469 414.216000
    928    932    933     1   109.8800469 414.216000
    928    932    934     1   109.8800469 414.216000
    928    935    936     1   109.8800469 414.216000
    928    935    937     1   109.8800469 414.216000
    929    941    942     1   109.8000471 387.438400
    929    941    943     1   109.8000471 387.438400
    930    929    941     1   109.5600471 388.275200
    930    929    931     1   108.4600466 328.025600
    931    929    941     1   109.5600471 388.275200
    932    944    945     1   109.8000471 387.438400
    932    944    946     1   109.8000471 387.438400
    933    932    944     1   109.5600471 388.275200
    933    932    934     1   108.4600466 328.025600
    934    932    944     1   109.5600471 388.275200
    935    938    939     1   109.8000471 387.438400
    935    938    940     1   109.8000471 387.438400
    936    935    938     1   109.5600471 388.275200
    936    935    937     1   108.4600466 328.025600
    937    935    938     1   109.5600471 388.275200
    938    947    948     1   109.5600471 388.275200
    938    947    949     1   109.5600471 388.275200
    939    938    947     1   109.8000471 387.438400
    939    938    940     1   107.5800459 329.699200
    940    938    947     1   109.8000471 387.438400
    941    953    954     1   109.5600471 388.275200
    941    953    955     1   109.5600471 388.275200
    942    941    953     1   109.8000471 387.438400
    942    941    943     1   107.5800459 329.699200
    943    941    953     1   109.8000471 387.438400
    944    950    951     1   109.5600471 388.275200
    944    950    952     1   109.5600471 388.275200
    945    944    950     1   109.8000471 387.438400
    945    944    946     1   107.5800459 329.699200
    946    944    950     1   109.8000471 387.438400
    948    947    956     1   109.7800468 425.094400
    948    947    949     1   108.4600466 328.025600
    949    947    956     1   109.7800468 425.094400
    951    950   1942     1   109.7800468 425.094400
    951    950    952     1   108.4600466 328.025600
    952    950   1942     1   109.7800468 425.094400
    954    953   1971     1   109.7800468 425.094400
    954    953    955     1   108.4600466 328.025600
    955    953   1971     1   109.7800468 425.094400
    957    958    959     1   109.8800469 414.216000
    957    958    960     1   109.8800469 414.216000
    957    961    962     1   109.8800469 414.216000
    957    961    963     1   109.8800469 414.216000
    957    964    965     1   109.8800469 414.216000
    957    964    966     1   109.8800469 414.216000
    958    970    971     1   109.8000471 387.438400
    958    970    972     1   109.8000471 387.438400
    959    958    970     1   109.5600471 388.275200
    959    958    960     1   108.4600466 328.025600
    960    958    970     1   109.5600471 388.275200
    961    973    974     1   109.8000471 387.438400
    961    973    975     1   109.8000471 387.438400
    962    961    973     1   109.5600471 388.275200
    962    961    963     1   108.4600466 328.025600
    963    961    973     1   109.5600471 388.275200
    964    967    968     1   109.8000471 387.438400
    964    967    969     1   109.8000471 387.438400
    965    964    967     1   109.5600471 388.275200
    965    964    966     1   108.4600466 328.025600
    966    964    967     1   109.5600471 388.275200
    967    976    977     1   109.5600471 388.275200
    967    976    978     1   109.5600471 388.275200
    968    967    976     1   109.8000471 387.438400
    968    967    969     1   107.5800459 329.699200
    969    967    976     1   109.8000471 387.438400
    970    982    983     1   109.5600471 388.275200
    970    982    984     1   109.5600471 388.275200
    971    970    982     1   109.8000471 387.438400
    971    970    972     1   107.5800459 329.699200
    972    970    982     1   109.8000471 387.438400
    973    979    980     1   109.5600471 388.275200
    973    979    981     1   109.5600471 388.275200
    974    973    979     1   109.8000471 387.438400
    974    973    975     1   107.5800459 329.699200
    975    973    979     1   109.8000471 387.438400
    977    976    985     1   109.7800468 425.094400
    977    976    978     1   108.4600466 328.025600
    978    976    985     1   109.7800468 425.094400
    980    979   2000     1   109.7800468 425.094400
    980    979    981     1   108.4600466 328.025600
    981    979   2000     1   109.7800468 425.094400
    983    982   2029     1   109.7800468 425.094400
    983    982    984     1   108.4600466 328.025600
    984    982   2029     1   109.7800468 425.094400
    986    987    988     1   109.8800469 414.216000
    986    987    989     1   109.8800469 414.216000
    986    990    991     1   109.8800469 414.216000
    986    990    992     1   109.8800469 414.216000
    986    993    994     1   109.8800469 414.216000
    986    993    995     1   109.8800469 414.216000
    987    999   1000     1   109.8000471 387.438400
    987    999   1001     1   109.8000471 387.438400
    988    987    999     1   109.5600471 388.275200
    988    987    989     1   108.4600466 328.025600
    989    987    999     1   109.5600471 388.275200
    990   1002   1003     1   109.8000471 387.438400
    990   1002   1004     1   109.8000471 387.438400
    991    990   1002     1   109.5600471 388.275200
    991    990    992     1   108.4600466 328.025600
    992    990   1002     1   109.5600471 388.275200
    993    996    997     1   109.8000471 387.438400
    993    996    998     1   109.8000471 387.438400
    994    993    996     1   109.5600471 388.275200
    994    993    995     1   108.4600466 328.025600
    995    993    996     1   109.5600471 388.275200
    996   1005   1006     1   109.5600471 388.275200
    996   1005   1007     1   109.5600471 388.275200
    997    996   1005     1   109.8000471 387.438400
    997    996    998     1   107.5800459 329.699200
    998    996   1005     1   109.8000471 387.438400
    999   1011   1012     1   109.5600471 388.275200
    999   1011   1013     1   109.5600471 388.275200
   1000    999   1011     1   109.8000471 387.438400
   1000    999   1001     1   107.5800459 329.699200
   1001    999   1011     1   109.8000471 387.438400
   1002   1008   1009     1   109.5600471 388.275200
   1002   1008   1010     1   109.5600471 388.275200
   1003   1002   1008     1   109.8000471 387.438400
   1003   1002   1004     1   107.5800459 329.699200
   1004   1002   1008     1   109.8000471 387.438400
   1006   1005   1014     1   109.7800468 425.094400
   1006   1005   1007     1   108.4600466 328.025600
   1007   1005   1014     1   109.7800468 425.094400
   1009   1008   2058     1   109.7800468 425.094400
   1009   1008   1010     1   108.4600466 328.025600
   1010   1008   2058     1   109.7800468 425.094400
   1012   1011   2087     1   109.7800468 425.094400
   1012   1011   1013     1   108.4600466 328.025600
   1013   1011   2087     1   109.7800468 425.094400
   1015   1016   1017     1   109.8800469 414.216000
   1015   1016   1018     1   109.8800469 414.216000
   1015   1019   1020     1   109.8800469 414.216000
   1015   1019   1021     1   109.8800469 414.216000
   1015   1022   1023     1   109.8800469 414.216000
   1015   1022   1024     1   109.8800469 414.216000
   1016   1028   1029     1   109.8000471 387.438400
   1016   1028   1030     1   109.8000471 387.438400
   1017   1016   1028     1   109.5600471 388.275200
   1017   1016   1018     1   108.4600466 328.025600
   1018   1016   1028     1   109.5600471 388.275200
   1019   1031   1032     1   109.8000471 387.438400
   1019   1031   1033     1   109.8000471 387.438400
   1020   1019   1031     1   109.5600471 388.275200
   1020   1019   1021     1   108.4600466 328.025600
   1021   1019   1031     1   109.5600471 388.275200
   1022   1025   1026     1   109.8000471 387.438400
   1022   1025   1027     1   109.8000471 387.438400
   1023   1022   1025     1   109.5600471 388.275200
   1023   1022   1024     1   108.4600466 328.025600
   1024   1022   1025     1   109.5600471 388.275200
   1025   1034   1035     1   109.5600471 388.275200
   1025   1034   1036     1   109.5600471 388.275200
   1026   1025   1034     1   109.8000471 387.438400
   1026   1025   1027     1   107.5800459 329.699200
   1027   1025   1034     1   109.8000471 387.438400
   1028   1040   1041     1   109.5600471 388.275200
   1028   1040   1042     1   109.5600471 388.275200
   1029   1028   1040     1   109.8000471 387.438400
   1029   1028   1030     1   107.5800459 329.699200
   1030   1028   1040     1   109.8000471 387.438400
   1031   1037   1038     1   109.5600471 388.275200
   1031   1037   1039     1   109.5600471 388.275200
   1032   1031   1037     1   109.8000471 387.438400
   1032   1031   1033     1   107.5800459 329.699200
   1033   1031   1037     1   109.8000471 387.438400
   1035   1034   1043     1   109.7800468 425.094400
   1035   1034   1036     1   108.4600466 328.025600
   1036   1034   1043     1   109.7800468 425.094400
   1038   1037   2116     1   109.7800468 425.094400
   1038   1037   1039     1   108.4600466 328.025600
   1039   1037   2116     1   109.7800468 425.094400
   1041   1040   2145     1   109.7800468 425.094400
   1041   1040   1042     1   108.4600466 328.025600
   1042   1040   2145     1   109.7800468 425.094400
   1044   1045   1046     1   109.8800469 414.216000
   1044   1045   1047     1   109.8800469 414.216000
   1044   1048   1049     1   109.8800469 414.216000
   1044   1048   1050     1   109.8800469 414.216000
   1044   1051   1052     1   109.8800469 414.216000
   1044   1051   1053     1   109.8800469 414.216000
   1045   1057   1058     1   109.8000471 387.438400
   1045   1057   1059     1   109.8000471 387.438400
   1046   1045   1057     1   109.5600471 388.275200
   1046   1045   1047     1   108.4600466 328.025600
   1047   1045   1057     1   109.5600471 388.275200
   1048   1060   1061     1   109.8000471 387.438400
   1048   1060   1062     1   109.8000471 387.438400
   1049   1048   1060     1   109.5600471 388.275200
   1049   1048   1050     1   108.4600466 328.025600
   1050   1048   1060     1   109.5600471 388.275200
   1051   1054   1055     1   109.8000471 387.438400
   1051   1054   1056     1   109.8000471 387.438400
   1052   1051   1054     1   109.5600471 388.275200
   1052   1051   1053     1   108.4600466 328.025600
   1053   1051   1054     1   109.5600471 388.275200
   1054   1063   1064     1   109.5600471 388.275200
   1054   1063   1065     1   109.5600471 388.275200
   1055   1054   1063     1   109.8000471 387.438400
   1055   1054   1056     1   107.5800459 329.699200
   1056   1054   1063     1   109.8000471 387.438400
   1057   1069   1070     1   109.5600471 388.275200
   1057   1069   1071     1   109.5600471 388.275200
   1058   1057   1069     1   109.8000471 387.438400
   1058   1057   1059     1   107.5800459 329.699200
   1059   1057   1069     1   109.8000471 387.438400
   1060   1066   1067     1   109.5600471 388.275200
   1060   1066   1068     1   109.5600471 388.275200
   1061   1060   1066     1   109.8000471 387.438400
   1061   1060   1062     1   107.5800459 329.699200
   1062   1060   1066     1   109.8000471 387.438400
   1064   1063   1072     1   109.7800468 425.094400
   1064   1063   1065     1   108.4600466 328.025600
   1065   1063   1072     1   109.7800468 425.094400
   1067   1066   2174     1   109.7800468 425.094400
   1067   1066   1068     1   108.4600466 328.025600
   1068   1066   2174     1   109.7800468 425.094400
   1070   1069   2203     1   109.7800468 425.094400
   1070   1069   1071     1   108.4600466 328.025600
   1071   1069   2203     1   109.7800468 425.094400
   1073   1074   1075     1   109.8800469 414.216000
   1073   1074   1076     1   109.8800469 414.216000
   1073   1077   1078     1   109.8800469 414.216000
   1073   1077   1079     1   109.8800469 414.216000
   1073   1080   1081     1   109.8800469 414.216000
   1073   1080   1082     1   109.8800469 414.216000
   1074   1086   1087     1   109.8000471 387.438400
   1074   1086   1088     1   109.8000471 387.438400
   1075   1074   1086     1   109.5600471 388.275200
   1075   1074   1076     1   108.4600466 328.025600
   1076   1074   1086     1   109.5600471 388.275200
   1077   1089   1090     1   109.8000471 387.438400
   1077   1089   1091     1   109.8000471 387.438400
   1078   1077   1089     1   109.5600471 388.275200
   1078   1077   1079     1   108.4600466 328.025600
   1079   1077   1089     1   109.5600471 388.275200
   1080   1083   1084     1   109.8000471 387.438400
   1080   1083   1085     1   109.8000471 387.438400
   1081   1080   1083     1   109.5600471 388.275200
   1081   1080   1082     1   108.4600466 328.025600
   1082   1080   1083     1   109.5600471 388.275200
   1083   1092   1093     1   109.5600471 388.275200
   1083   1092   1094     1   109.5600471 388.275200
   1084   1083   1092     1   109.8000471 387.438400
   1084   1083   1085     1   107.5800459 329.699200
   1085   1083   1092     1   109.8000471 387.438400
   1086   1098   1099     1   109.5600471 388.275200
   1086   1098   1100     1   109.5600471 388.275200
   1087   1086   1098     1   109.8000471 387.438400
   1087   1086   1088     1   107.5800459 329.699200
   1088   1086   1098     1   109.8000471 387.438400
   1089   1095   1096     1   109.5600471 388.275200
   1089   1095   1097     1   109.5600471 388.275200
   1090   1089   1095     1   109.8000471 387.438400
   1090   1089   1091     1   107.5800459 329.699200
   1091   1089   1095     1   109.8000471 387.438400
   1093   1092   1101     1   109.7800468 425.094400
   1093   1092   1094     1   108.4600466 328.025600
   1094   1092   1101     1   109.7800468 425.094400
   1096   1095   2232     1   109.7800468 425.094400
   1096   1095   1097     1   108.4600466 328.025600
   1097   1095   2232     1   109.7800468 425.094400
   1099   1098   2261     1   109.7800468 425.094400
   1099   1098   1100     1   108.4600466 328.025600
   1100   1098   2261     1   109.7800468 425.094400
   1102   1103   1104     1   109.8800469 414.216000
   1102   1103   1105     1   109.8800469 414.216000
   1102   1106   1107     1   109.8800469 414.216000
   1102   1106   1108     1   109.8800469 414.216000
   1102   1109   1110     1   109.8800469 414.216000
   1102   1109   1111     1   109.8800469 414.216000
   1103   1115   1116     1   109.8000471 387.438400
   1103   1115   1117     1   109.8000471 387.438400
   1104   1103   1115     1   109.5600471 388.275200
   1104   1103   1105     1   108.4600466 328.025600
   1105   1103   1115     1   109.5600471 388.275200
   1106   1118   1119     1   109.8000471 387.438400
   1106   1118   1120     1   109.8000471 387.438400
   1107   1106   1118     1   109.5600471 388.275200
   1107   1106   1108     1   108.4600466 328.025600
   1108   1106   1118     1   109.5600471 388.275200
   1109   1112   1113     1   109.8000471 387.438400
   1109   1112   1114     1   109.8000471 387.438400
   1110   1109   1112     1   109.5600471 388.275200
   1110   1109   1111     1   108.4600466 328.025600
   1111   1109   1112     1   109.5600471 388.275200
   1112   1121   1122     1   109.5600471 388.275200
   1112   1121   1123     1   109.5600471 388.275200
   1113   1112   1121     1   109.8000471 387.438400
   1113   1112   1114     1   107.5800459 329.699200
   1114   1112   1121     1   109.8000471 387.438400
   1115   1127   1128     1   109.5600471 388.275200
   1115   1127   1129     1   109.5600471 388.275200
   1116   1115   1127     1   109.8000471 387.438400
   1116   1115   1117     1   107.5800459 329.699200
   1117   1115   1127     1   109.8000471 387.438400
   1118   1124   1125     1   109.5600471 388.275200
   1118   1124   1126     1   109.5600471 388.275200
   1119   1118   1124     1   109.8000471 387.438400
   1119   1118   1120     1   107.5800459 329.699200
   1120   1118   1124     1   109.8000471 387.438400
   1122   1121   1130     1   109.7800468 425.094400
   1122   1121   1123     1   108.4600466 328.025600
   1123   1121   1130     1   109.7800468 425.094400
   1125   1124   2290     1   109.7800468 425.094400
   1125   1124   1126     1   108.4600466 328.025600
   1126   1124   2290     1   109.7800468 425.094400
   1128   1127   2319     1   109.7800468 425.094400
   1128   1127   1129     1   108.4600466 328.025600
   1129   1127   2319     1   109.7800468 425.094400
   1131   1132   1133     1   109.8800469 414.216000
   1131   1132   1134     1   109.8800469 414.216000
   1131   1135   1136     1   109.8800469 414.216000
   1131   1135   1137     1   109.8800469 414.216000
   1131   1138   1139     1   109.8800469 414.216000
   1131   1138   1140     1   109.8800469 414.216000
   1132   1144   1145     1   109.8000471 387.438400
   1132   1144   1146     1   109.8000471 387.438400
   1133   1132   1144     1   109.5600471 388.275200
   1133   1132   1134     1   108.4600466 328.025600
   1134   1132   1144     1   109.5600471 388.275200
   1135   1147   1148     1   109.8000471 387.438400
   1135   1147   1149     1   109.8000471 387.438400
   1136   1135   1147     1   109.5600471 388.275200
   1136   1135   1137     1   108.4600466 328.025600
   1137   1135   1147     1   109.5600471 388.275200
   1138   1141   1142     1   109.8000471 387.438400
   1138   1141   1143     1   109.8000471 387.438400
   1139   1138   1141     1   109.5600471 388.275200
   1139   1138   1140     1   108.4600466 328.025600
   1140   1138   1141     1   109.5600471 388.275200
   1141   1150   1151     1   109.5600471 388.275200
   1141   1150   1152     1   109.5600471 388.275200
   1142   1141   1150     1   109.8000471 387.438400
   1142   1141   1143     1   107.5800459 329.699200
   1143   1141   1150     1   109.8000471 387.438400
   1144   1156   1157     1   109.5600471 388.275200
   1144   1156   1158     1   109.5600471 388.275200
   1145   1144   1156     1   109.8000471 387.438400
   1145   1144   1146     1   107.5800459 329.699200
   1146   1144   1156     1   109.8000471 387.438400
   1147   1153   1154     1   109.5600471 388.275200
   1147   1153   1155     1   109.5600471 388.275200
   1148   1147   1153     1   109.8000471 387.438400
   1148   1147   1149     1   107.5800459 329.699200
   1149   1147   1153     1   109.8000471 387.438400
   1151   1150   1159     1   109.7800468 425.094400
   1151   1150   1152     1   108.4600466 328.025600
   1152   1150   1159     1   109.7800468 425.094400
   1154   1153   2348     1   109.7800468 425.094400
   1154   1153   1155     1   108.4600466 328.025600
   1155   1153   2348     1   109.7800468 425.094400
   1157   1156   2377     1   109.7800468 425.094400
   1157   1156   1158     1   108.4600466 328.025600
   1158   1156   2377     1   109.7800468 425.094400
   1160   1161   1162     1   109.8800469 414.216000
   1160   1161   1163     1   109.8800469 414.216000
   1160   1164   1165     1   109.8800469 414.216000
   1160   1164   1166     1   109.8800469 414.216000
   1160   1167   1168     1   109.8800469 414.216000
   1160   1167   1169     1   109.8800469 414.216000
   1161   1173   1174     1   109.8000471 387.438400
   1161   1173   1175     1   109.8000471 387.438400
   1162   1161   1173     1   109.5600471 388.275200
   1162   1161   1163     1   108.4600466 328.025600
   1163   1161   1173     1   109.5600471 388.275200
   1164   1176   1177     1   109.8000471 387.438400
   1164   1176   1178     1   109.8000471 387.438400
   1165   1164   1176     1   109.5600471 388.275200
   1165   1164   1166     1   108.4600466 328.025600
   1166   1164   1176     1   109.5600471 388.275200
   1167   1170   1171     1   109.8000471 387.438400
   1167   1170   1172     1   109.8000471 387.438400
   1168   1167   1170     1   109.5600471 388.275200
   1168   1167   1169     1   108.4600466 328.025600
   1169   1167   1170     1   109.5600471 388.275200
   1170   1179   1180     1   109.5600471 388.275200
   1170   1179   1181     1   109.5600471 388.275200
   1171   1170   1179     1   109.8000471 387.438400
   1171   1170   1172     1   107.5800459 329.699200
   1172   1170   1179     1   109.8000471 387.438400
   1173   1185   1186     1   109.5600471 388.275200
   1173   1185   1187     1   109.5600471 388.275200
   1174   1173   1185     1   109.8000471 387.438400
   1174   1173   1175     1   107.5800459 329.699200
   1175   1173   1185     1   109.8000471 387.438400
   1176   1182   1183     1   109.5600471 388.275200
   1176   1182   1184     1   109.5600471 388.275200
   1177   1176   1182     1   109.8000471 387.438400
   1177   1176   1178     1   107.5800459 329.699200
   1178   1176   1182     1   109.8000471 387.438400
   1180   1179   1188     1   109.7800468 425.094400
   1180   1179   1181     1   108.4600466 328.025600
   1181   1179   1188     1   109.7800468 425.094400
   1183   1182   2406     1   109.7800468 425.094400
   1183   1182   1184     1   108.4600466 328.025600
   1184   1182   2406     1   109.7800468 425.094400
   1186   1185   2435     1   109.7800468 425.094400
   1186   1185   1187     1   108.4600466 328.025600
   1187   1185   2435     1   109.7800468 425.094400
   1189   1190   1191     1   109.8800469 414.216000
   1189   1190   1192     1   109.8800469 414.216000
   1189   1193   1194     1   109.8800469 414.216000
   1189   1193   1195     1   109.8800469 414.216000
   1189   1196   1197     1   109.8800469 414.216000
   1189   1196   1198     1   109.8800469 414.216000
   1190   1202   1203     1   109.8000471 387.438400
   1190   1202   1204     1   109.8000471 387.438400
   1191   1190   1202     1   109.5600471 388.275200
   1191   1190   1192     1   108.4600466 328.025600
   1192   1190   1202     1   109.5600471 388.275200
   1193   1205   1206     1   109.8000471 387.438400
   1193   1205   1207     1   109.8000471 387.438400
   1194   1193   1205     1   109.5600471 388.275200
   1194   1193   1195     1   108.4600466 328.025600
   1195   1193   1205     1   109.5600471 388.275200
   1196   1199   1200     1   109.8000471 387.438400
   1196   1199   1201     1   109.8000471 387.438400
   1197   1196   1199     1   109.5600471 388.275200
   1197   1196   1198     1   108.4600466 328.025600
   1198   1196   1199     1   109.5600471 388.275200
   1199   1208   1209     1   109.5600471 388.275200
   1199   1208   1210     1   109.5600471 388.275200
   1200   1199   1208     1   109.8000471 387.438400
   1200   1199   1201     1   107.5800459 329.699200
   1201   1199   1208     1   109.8000471 387.438400
   1202   1214   1215     1   109.5600471 388.275200
   1202   1214   1216     1   109.5600471 388.275200
   1203   1202   1214     1   109.8000471 387.438400
   1203   1202   1204     1   107.5800459 329.699200
   1204   1202   1214     1   109.8000471 387.438400
   1205   1211   1212     1   109.5600471 388.275200
   1205   1211   1213     1   109.5600471 388.275200
   1206   1205   1211     1   109.8000471 387.438400
   1206   1205   1207     1   107.5800459 329.699200
   1207   1205   1211     1   109.8000471 387.438400
   1209   1208   1217     1   109.7800468 425.094400
   1209   1208   1210     1   108.4600466 328.025600
   1210   1208   1217     1   109.7800468 425.094400
   1212   1211   2464     1   109.7800468 425.094400
   1212   1211   1213     1   108.4600466 328.025600
   1213   1211   2464     1   109.7800468 425.094400
   1215   1214   2493     1   109.7800468 425.094400
   1215   1214   1216     1   108.4600466 328.025600
   1216   1214   2493     1   109.7800468 425.094400
   1218   1219   1220     1   109.8800469 414.216000
   1218   1219   1221     1   109.8800469 414.216000
   1218   1222   1223     1   109.8800469 414.216000
   1218   1222   1224     1   109.8800469 414.216000
   1218   1225   1226     1   109.8800469 414.216000
   1218   1225   1227     1   109.8800469 414.216000
   1219   1231   1232     1   109.8000471 387.438400
   1219   1231   1233     1   109.8000471 387.438400
   1220   1219   1231     1   109.5600471 388.275200
   1220   1219   1221     1   108.4600466 328.025600
   1221   1219   1231     1   109.5600471 388.275200
   1222   1234   1235     1   109.8000471 387.438400
   1222   1234   1236     1   109.8000471 387.438400
   1223   1222   1234     1   109.5600471 388.275200
   1223   1222   1224     1   108.4600466 328.025600
   1224   1222   1234     1   109.5600471 388.275200
   1225   1228   1229     1   109.8000471 387.438400
   1225   1228   1230     1   109.8000471 387.438400
   1226   1225   1228     1   109.5600471 388.275200
   1226   1225   1227     1   108.4600466 328.025600
   1227   1225   1228     1   109.5600471 388.275200
   1228   1237   1238     1   109.5600471 388.275200
   1228   1237   1239     1   109.5600471 388.275200
   1229   1228   1237     1   109.8000471 387.438400
   1229   1228   1230     1   107.5800459 329.699200
   1230   1228   1237     1   109.8000471 387.438400
   1231   1243   1244     1   109.5600471 388.275200
   1231   1243   1245     1   109.5600471 388.275200
   1232   1231   1243     1   109.8000471 387.438400
   1232   1231   1233     1   107.5800459 329.699200
   1233   1231   1243     1   109.8000471 387.438400
   1234   1240   1241     1   109.5600471 388.275200
   1234   1240   1242     1   109.5600471 388.275200
   1235   1234   1240     1   109.8000471 387.438400
   1235   1234   1236     1   107.5800459 329.699200
   1236   1234   1240     1   109.8000471 387.438400
   1238   1237   1246     1   109.7800468 425.094400
   1238   1237   1239     1   108.4600466 328.025600
   1239   1237   1246     1   109.7800468 425.094400
   1241   1240   2522     1   109.7800468 425.094400
   1241   1240   1242     1   108.4600466 328.025600
   1242   1240   2522     1   109.7800468 425.094400
   1244   1243   2551     1   109.7800468 425.094400
   1244   1243   1245     1   108.4600466 328.025600
   1245   1243   2551     1   109.7800468 425.094400
   1247   1248   1249     1   109.8800469 414.216000
   1247   1248   1250     1   109.8800469 414.216000
   1247   1251   1252     1   109.8800469 414.216000
   1247   1251   1253     1   109.8800469 414.216000
   1247   1254   1255     1   109.8800469 414.216000
   1247   1254   1256     1   109.8800469 414.216000
   1248   1260   1261     1   109.8000471 387.438400
   1248   1260   1262     1   109.8000471 387.438400
   1249   1248   1260     1   109.5600471 388.275200
   1249   1248   1250     1   108.4600466 328.025600
   1250   1248   1260     1   109.5600471 388.275200
   1251   1263   1264     1   109.8000471 387.438400
   1251   1263   1265     1   109.8000471 387.438400
   1252   1251   1263     1   109.5600471 388.275200
   1252   1251   1253     1   108.4600466 328.025600
   1253   1251   1263     1   109.5600471 388.275200
   1254   1257   1258     1   109.8000471 387.438400
   1254   1257   1259     1   109.8000471 387.438400
   1255   1254   1257     1   109.5600471 388.275200
   1255   1254   1256     1   108.4600466 328.025600
   1256   1254   1257     1   109.5600471 388.275200
   1257   1266   1267     1   109.5600471 388.275200
   1257   1266   1268     1   109.5600471 388.275200
   1258   1257   1266     1   109.8000471 387.438400
   1258   1257   1259     1   107.5800459 329.699200
   1259   1257   1266     1   109.8000471 387.438400
   1260   1272   1273     1   109.5600471 388.275200
   1260   1272   1274     1   109.5600471 388.275200
   1261   1260   1272     1   109.8000471 387.438400
   1261   1260   1262     1   107.5800459 329.699200
   1262   1260   1272     1   109.8000471 387.438400
   1263   1269   1270     1   109.5600471 388.275200
   1263   1269   1271     1   109.5600471 388.275200
   1264   1263   1269     1   109.8000471 387.438400
   1264   1263   1265     1   107.5800459 329.699200
   1265   1263   1269     1   109.8000471 387.438400
   1267   1266   1275     1   109.7800468 425.094400
   1267   1266   1268     1   108.4600466 328.025600
   1268   1266   1275     1   109.7800468 425.094400
   1270   1269   2580     1   109.7800468 425.094400
   1270   1269   1271     1   108.4600466 328.025600
   1271   1269   2580     1   109.7800468 425.094400
   1273   1272   2609     1   109.7800468 425.094400
   1273   1272   1274     1   108.4600466 328.025600
   1274   1272   2609     1   109.7800468 425.094400
   1276   1277   1278     1   109.8800469 414.216000
   1276   1277   1279     1   109.8800469 414.216000
   1276   1280   1281     1   109.8800469 414.216000
   1276   1280   1282     1   109.8800469 414.216000
   1276   1283   1284     1   109.8800469 414.216000
   1276   1283   1285     1   109.8800469 414.216000
   1277   1289   1290     1   109.8000471 387.438400
   1277   1289   1291     1   109.8000471 387.438400
   1278   1277   1289     1   109.5600471 388.275200
   1278   1277   1279     1   108.4600466 328.025600
   1279   1277   1289     1   109.5600471 388.275200
   1280   1292   1293     1   109.8000471 387.438400
   1280   1292   1294     1   109.8000471 387.438400
   1281   1280   1292     1   109.5600471 388.275200
   1281   1280   1282     1   108.4600466 328.025600
   1282   1280   1292     1   109.5600471 388.275200
   1283   1286   1287     1   109.8000471 387.438400
   1283   1286   1288     1   109.8000471 387.438400
   1284   1283   1286     1   109.5600471 388.275200
   1284   1283   1285     1   108.4600466 328.025600
   1285   1283   1286     1   109.5600471 388.275200
   1286   1295   1296     1   109.5600471 388.275200
   1286   1295   1297     1   109.5600471 388.275200
   1287   1286   1295     1   109.8000471 387.438400
   1287   1286   1288     1   107.5800459 329.699200
   1288   1286   1295     1   109.8000471 387.438400
   1289   1301   1302     1   109.5600471 388.275200
   1289   1301   1303     1   109.5600471 388.275200
   1290   1289   1301     1   109.8000471 387.438400
   1290   1289   1291     1   107.5800459 329.699200
   1291   1289   1301     1   109.8000471 387.438400
   1292   1298   1299     1   109.5600471 388.275200
   1292   1298   1300     1   109.5600471 388.275200
   1293   1292   1298     1   109.8000471 387.438400
   1293   1292   1294     1   107.5800459 329.699200
   1294   1292   1298     1   109.8000471 387.438400
   1296   1295   1304     1   109.7800468 425.094400
   1296   1295   1297     1   108.4600466 328.025600
   1297   1295   1304     1   109.7800468 425.094400
   1299   1298   2638     1   109.7800468 425.094400
   1299   1298   1300     1   108.4600466 328.025600
   1300   1298   2638     1   109.7800468 425.094400
   1302   1301   2667     1   109.7800468 425.094400
   1302   1301   1303     1   108.4600466 328.025600
   1303   1301   2667     1   109.7800468 425.094400
   1305   1306   1307     1   109.8800469 414.216000
   1305   1306   1308     1   109.8800469 414.216000
   1305   1309   1310     1   109.8800469 414.216000
   1305   1309   1311     1   109.8800469 414.216000
   1305   1312   1313     1   109.8800469 414.216000
   1305   1312   1314     1   109.8800469 414.216000
   1306   1318   1319     1   109.8000471 387.438400
   1306   1318   1320     1   109.8000471 387.438400
   1307   1306   1318     1   109.5600471 388.275200
   1307   1306   1308     1   108.4600466 328.025600
   1308   1306   1318     1   109.5600471 388.275200
   1309   1321   1322     1   109.8000471 387.438400
   1309   1321   1323     1   109.8000471 387.438400
   1310   1309   1321     1   109.5600471 388.275200
   1310   1309   1311     1   108.4600466 328.025600
   1311   1309   1321     1   109.5600471 388.275200
   1312   1315   1316     1   109.8000471 387.438400
   1312   1315   1317     1   109.8000471 387.438400
   1313   1312   1315     1   109.5600471 388.275200
   1313   1312   1314     1   108.4600466 328.025600
   1314   1312   1315     1   109.5600471 388.275200
   1315   1324   1325     1   109.5600471 388.275200
   1315   1324   1326     1   109.5600471 388.275200
   1316   1315   1324     1   109.8000471 387.438400
   1316   1315   1317     1   107.5800459 329.699200
   1317   1315   1324     1   109.8000471 387.438400
   1318   1330   1331     1   109.5600471 388.275200
   1318   1330   1332     1   109.5600471 388.275200
   1319   1318   1330     1   109.8000471 387.438400
   1319   1318   1320     1   107.5800459 329.699200
   1320   1318   1330     1   109.8000471 387.438400
   1321   1327   1328     1   109.5600471 388.275200
   1321   1327   1329     1   109.5600471 388.275200
   1322   1321   1327     1   109.8000471 387.438400
   1322   1321   1323     1   107.5800459 329.699200
   1323   1321   1327     1   109.8000471 387.438400
   1325   1324   1333     1   109.7800468 425.094400
   1325   1324   1326     1   108.4600466 328.025600
   1326   1324   1333     1   109.7800468 425.094400
   1328   1327   2696     1   109.7800468 425.094400
   1328   1327   1329     1   108.4600466 328.025600
   1329   1327   2696     1   109.7800468 425.094400
   1331   1330   2725     1   109.7800468 425.094400
   1331   1330   1332     1   108.4600466 328.025600
   1332   1330   2725     1   109.7800468 425.094400
   1334   1335   1336     1   109.8800469 414.216000
   1334   1335   1337     1   109.8800469 414.216000
   1334   1338   1339     1   109.8800469 414.216000
   1334   1338   1340     1   109.8800469 414.216000
   1334   1341   1342     1   109.8800469 414.216000
   1334   1341   1343     1   109.8800469 414.216000
   1335   1347   1348     1   109.8000471 387.438400
   1335   1347   1349     1   109.8000471 387.438400
   1336   1335   1347     1   109.5600471 388.275200
   1336   1335   1337     1   108.4600466 328.025600
   1337   1335   1347     1   109.5600471 388.275200
   1338   1350   1351     1   109.8000471 387.438400
   1338   1350   1352     1   109.8000471 387.438400
   1339   1338   1350     1   109.5600471 388.275200
   1339   1338   1340     1   108.4600466 328.025600
   1340   1338   1350     1   109.5600471 388.275200
   1341   1344   1345     1   109.8000471 387.438400
   1341   1344   1346     1   109.8000471 387.438400
   1342   1341   1344     1   109.5600471 388.275200
   1342   1341   1343     1   108.4600466 328.025600
   1343   1341   1344     1   109.5600471 388.275200
   1344   1353   1354     1   109.5600471 388.275200
   1344   1353   1355     1   109.5600471 388.275200
   1345   1344   1353     1   109.8000471 387.438400
   1345   1344   1346     1   107.5800459 329.699200
   1346   1344   1353     1   109.8000471 387.438400
   1347   1359   1360     1   109.5600471 388.275200
   1347   1359   1361     1   109.5600471 388.275200
   1348   1347   1359     1   109.8000471 387.438400
   1348   1347   1349     1   107.5800459 329.699200
   1349   1347   1359     1   109.8000471 387.438400
   1350   1356   1357     1   109.5600471 388.275200
   1350   1356   1358     1   109.5600471 388.275200
   1351   1350   1356     1   109.8000471 387.438400
   1351   1350   1352     1   107.5800459 329.699200
   1352   1350   1356     1   109.8000471 387.438400
   1354   1353   1362     1   109.7800468 425.094400
   1354   1353   1355     1   108.4600466 328.025600
   1355   1353   1362     1   109.7800468 425.094400
   1357   1356   2756     1   109.7800468 425.094400
   1357   1356   1358     1   108.4600466 328.025600
   1358   1356   2756     1   109.7800468 425.094400
   1360   1359   2787     1   109.7800468 425.094400
   1360   1359   1361     1   108.4600466 328.025600
   1361   1359   2787     1   109.7800468 425.094400
   1363   1364   1365     1   109.8800469 414.216000
   1363   1364   1366     1   109.8800469 414.216000
   1363   1367   1368     1   109.8800469 414.216000
   1363   1367   1369     1   109.8800469 414.216000
   1363   1370   1371     1   109.8800469 414.216000
   1363   1370   1372     1   109.8800469 414.216000
   1364   1376   1377     1   109.8000471 387.438400
   1364   1376   1378     1   109.8000471 387.438400
   1365   1364   1376     1   109.5600471 388.275200
   1365   1364   1366     1   108.4600466 328.025600
   1366   1364   1376     1   109.5600471 388.275200
   1367   1379   1380     1   109.8000471 387.438400
   1367   1379   1381     1   109.8000471 387.438400
   1368   1367   1379     1   109.5600471 388.275200
   1368   1367   1369     1   108.4600466 328.025600
   1369   1367   1379     1   109.5600471 388.275200
   1370   1373   1374     1   109.8000471 387.438400
   1370   1373   1375     1   109.8000471 387.438400
   1371   1370   1373     1   109.5600471 388.275200
   1371   1370   1372     1   108.4600466 328.025600
   1372   1370   1373     1   109.5600471 388.275200
   1373   1382   1383     1   109.5600471 388.275200
   1373   1382   1384     1   109.5600471 388.275200
   1374   1373   1382     1   109.8000471 387.438400
   1374   1373   1375     1   107.5800459 329.699200
   1375   1373   1382     1   109.8000471 387.438400
   1376   1388   1389     1   109.5600471 388.275200
   1376   1388   1390     1   109.5600471 388.275200
   1377   1376   1388     1   109.8000471 387.438400
   1377   1376   1378     1   107.5800459 329.699200
   1378   1376   1388     1   109.8000471 387.438400
   1379   1385   1386     1   109.5600471 388.275200
   1379   1385   1387     1   109.5600471 388.275200
   1380   1379   1385     1   109.8000471 387.438400
   1380   1379   1381     1   107.5800459 329.699200
   1381   1379   1385     1   109.8000471 387.438400
   1383   1382   1391     1   109.7800468 425.094400
   1383   1382   1384     1   108.4600466 328.025600
   1384   1382   1391     1   109.7800468 425.094400
   1386   1385   2818     1   109.7800468 425.094400
   1386   1385   1387     1   108.4600466 328.025600
   1387   1385   2818     1   109.7800468 425.094400
   1389   1388   2849     1   109.7800468 425.094400
   1389   1388   1390     1   108.4600466 328.025600
   1390   1388   2849     1   109.7800468 425.094400
   1392   1393   1394     1   109.8800469 414.216000
   1392   1393   1395     1   109.8800469 414.216000
   1392   1396   1397     1   109.8800469 414.216000
   1392   1396   1398     1   109.8800469 414.216000
   1392   1399   1400     1   109.8800469 414.216000
   1392   1399   1401     1   109.8800469 414.216000
   1393   1405   1406     1   109.8000471 387.438400
   1393   1405   1407     1   109.8000471 387.438400
   1394   1393   1405     1   109.5600471 388.275200
   1394   1393   1395     1   108.4600466 328.025600
   1395   1393   1405     1   109.5600471 388.275200
   1396   1408   1409     1   109.8000471 387.438400
   1396   1408   1410     1   109.8000471 387.438400
   1397   1396   1408     1   109.5600471 388.275200
   1397   1396   1398     1   108.4600466 328.025600
   1398   1396   1408     1   109.5600471 388.275200
   1399   1402   1403     1   109.8000471 387.438400
   1399   1402   1404     1   109.8000471 387.438400
   1400   1399   1402     1   109.5600471 388.275200
   1400   1399   1401     1   108.4600466 328.025600
   1401   1399   1402     1   109.5600471 388.275200
   1402   1411   1412     1   109.5600471 388.275200
   1402   1411   1413     1   109.5600471 388.275200
   1403   1402   1411     1   109.8000471 387.438400
   1403   1402   1404     1   107.5800459 329.699200
   1404   1402   1411     1   109.8000471 387.438400
   1405   1417   1418     1   109.5600471 388.275200
   1405   1417   1419     1   109.5600471 388.275200
   1406   1405   1417     1   109.8000471 387.438400
   1406   1405   1407     1   107.5800459 329.699200
   1407   1405   1417     1   109.8000471 387.438400
   1408   1414   1415     1   109.5600471 388.275200
   1408   1414   1416     1   109.5600471 388.275200
   1409   1408   1414     1   109.8000471 387.438400
   1409   1408   1410     1   107.5800459 329.699200
   1410   1408   1414     1   109.8000471 387.438400
   1412   1411   1420     1   109.7800468 425.094400
   1412   1411   1413     1   108.4600466 328.025600
   1413   1411   1420     1   109.7800468 425.094400
   1415   1414   2880     1   109.7800468 425.094400
   1415   1414   1416     1   108.4600466 328.025600
   1416   1414   2880     1   109.7800468 425.094400
   1418   1417   2911     1   109.7800468 425.094400
   1418   1417   1419     1   108.4600466 328.025600
   1419   1417   2911     1   109.7800468 425.094400
   1421   1422   1423     1   109.8800469 414.216000
   1421   1422   1424     1   109.8800469 414.216000
   1421   1425   1426     1   109.8800469 414.216000
   1421   1425   1427     1   109.8800469 414.216000
   1421   1428   1429     1   109.8800469 414.216000
   1421   1428   1430     1   109.8800469 414.216000
   1422   1434   1435     1   109.8000471 387.438400
   1422   1434   1436     1   109.8000471 387.438400
   1423   1422   1434     1   109.5600471 388.275200
   1423   1422   1424     1   108.4600466 328.025600
   1424   1422   1434     1   109.5600471 388.275200
   1425   1437   1438     1   109.8000471 387.438400
   1425   1437   1439     1   109.8000471 387.438400
   1426   1425   1437     1   109.5600471 388.275200
   1426   1425   1427     1   108.4600466 328.025600
   1427   1425   1437     1   109.5600471 388.275200
   1428   1431   1432     1   109.8000471 387.438400
   1428   1431   1433     1   109.8000471 387.438400
   1429   1428   1431     1   109.5600471 388.275200
   1429   1428   1430     1   108.4600466 328.025600
   1430   1428   1431     1   109.5600471 388.275200
   1431   1440   1441     1   109.5600471 388.275200
   1431   1440   1442     1   109.5600471 388.275200
   1432   1431   1440     1   109.8000471 387.438400
   1432   1431   1433     1   107.5800459 329.699200
   1433   1431   1440     1   109.8000471 387.438400
   1434   1446   1447     1   109.5600471 388.275200
   1434   1446   1448     1   109.5600471 388.275200
   1435   1434   1446     1   109.8000471 387.438400
   1435   1434   1436     1   107.5800459 329.699200
   1436   1434   1446     1   109.8000471 387.438400
   1437   1443   1444     1   109.5600471 388.275200
   1437   1443   1445     1   109.5600471 388.275200
   1438   1437   1443     1   109.8000471 387.438400
   1438   1437   1439     1   107.5800459 329.699200
   1439   1437   1443     1   109.8000471 387.438400
   1441   1440   1449     1   109.7800468 425.094400
   1441   1440   1442     1   108.4600466 328.025600
   1442   1440   1449     1   109.7800468 425.094400
   1444   1443   2942     1   109.7800468 425.094400
   1444   1443   1445     1   108.4600466 328.025600
   1445   1443   2942     1   109.7800468 425.094400
   1447   1446   2973     1   109.7800468 425.094400
   1447   1446   1448     1   108.4600466 328.025600
   1448   1446   2973     1   109.7800468 425.094400
   1450   1451   1452     1   109.8800469 414.216000
   1450   1451   1453     1   109.8800469 414.216000
   1450   1454   1455     1   109.8800469 414.216000
   1450   1454   1456     1   109.8800469 414.216000
   1450   1457   1458     1   109.8800469 414.216000
   1450   1457   1459     1   109.8800469 414.216000
   1451   1463   1464     1   109.8000471 387.438400
   1451   1463   1465     1   109.8000471 387.438400
   1452   1451   1463     1   109.5600471 388.275200
   1452   1451   1453     1   108.4600466 328.025600
   1453   1451   1463     1   109.5600471 388.275200
   1454   1466   1467     1   109.8000471 387.438400
   1454   1466   1468     1   109.8000471 387.438400
   1455   1454   1466     1   109.5600471 388.275200
   1455   1454   1456     1   108.4600466 328.025600
   1456   1454   1466     1   109.5600471 388.275200
   1457   1460   1461     1   109.8000471 387.438400
   1457   1460   1462     1   109.8000471 387.438400
   1458   1457   1460     1   109.5600471 388.275200
   1458   1457   1459     1   108.4600466 328.025600
   1459   1457   1460     1   109.5600471 388.275200
   1460   1469   1470     1   109.5600471 388.275200
   1460   1469   1471     1   109.5600471 388.275200
   1461   1460   1469     1   109.8000471 387.438400
   1461   1460   1462     1   107.5800459 329.699200
   1462   1460   1469     1   109.8000471 387.438400
   1463   1475   1476     1   109.5600471 388.275200
   1463   1475   1477     1   109.5600471 388.275200
   1464   1463   1475     1   109.8000471 387.438400
   1464   1463   1465     1   107.5800459 329.699200
   1465   1463   1475     1   109.8000471 387.438400
   1466   1472   1473     1   109.5600471 388.275200
   1466   1472   1474     1   109.5600471 388.275200
   1467   1466   1472     1   109.8000471 387.438400
   1467   1466   1468     1   107.5800459 329.699200
   1468   1466   1472     1   109.8000471 387.438400
   1470   1469   1478     1   109.7800468 425.094400
   1470   1469   1471     1   108.4600466 328.025600
   1471   1469   1478     1   109.7800468 425.094400
   1473   1472   3004     1   109.7800468 425.094400
   1473   1472   1474     1   108.4600466 328.025600
   1474   1472   3004     1   109.7800468 425.094400
   1476   1475   3035     1   109.7800468 425.094400
   1476   1475   1477     1   108.4600466 328.025600
   1477   1475   3035     1   109.7800468 425.094400
   1479   1480   1481     1   109.8800469 414.216000
   1479   1480   1482     1   109.8800469 414.216000
   1479   1483   1484     1   109.8800469 414.216000
   1479   1483   1485     1   109.8800469 414.216000
   1479   1486   1487     1   109.8800469 414.216000
   1479   1486   1488     1   109.8800469 414.216000
   1480   1492   1493     1   109.8000471 387.438400
   1480   1492   1494     1   109.8000471 387.438400
   1481   1480   1492     1   109.5600471 388.275200
   1481   1480   1482     1   108.4600466 328.025600
   1482   1480   1492     1   109.5600471 388.275200
   1483   1495   1496     1   109.8000471 387.438400
   1483   1495   1497     1   109.8000471 387.438400
   1484   1483   1495     1   109.5600471 388.275200
   1484   1483   1485     1   108.4600466 328.025600
   1485   1483   1495     1   109.5600471 388.275200
   1486   1489   1490     1   109.8000471 387.438400
   1486   1489   1491     1   109.8000471 387.438400
   1487   1486   1489     1   109.5600471 388.275200
   1487   1486   1488     1   108.4600466 328.025600
   1488   1486   1489     1   109.5600471 388.275200
   1489   1498   1499     1   109.5600471 388.275200
   1489   1498   1500     1   109.5600471 388.275200
   1490   1489   1498     1   109.8000471 387.438400
   1490   1489   1491     1   107.5800459 329.699200
   1491   1489   1498     1   109.8000471 387.438400
   1492   1504   1505     1   109.5600471 388.275200
   1492   1504   1506     1   109.5600471 388.275200
   1493   1492   1504     1   109.8000471 387.438400
   1493   1492   1494     1   107.5800459 329.699200
   1494   1492   1504     1   109.8000471 387.438400
   1495   1501   1502     1   109.5600471 388.275200
   1495   1501   1503     1   109.5600471 388.275200
   1496   1495   1501     1   109.8000471 387.438400
   1496   1495   1497     1   107.5800459 329.699200
   1497   1495   1501     1   109.8000471 387.438400
   1499   1498   1507     1   109.7800468 425.094400
   1499   1498   1500     1   108.4600466 328.025600
   1500   1498   1507     1   109.7800468 425.094400
   1502   1501   3066     1   109.7800468 425.094400
   1502   1501   1503     1   108.4600466 328.025600
   1503   1501   3066     1   109.7800468 425.094400
   1505   1504   3097     1   109.7800468 425.094400
   1505   1504   1506     1   108.4600466 328.025600
   1506   1504   3097     1   109.7800468 425.094400
   1508   1509   1510     1   109.8800469 414.216000
   1508   1509   1511     1   109.8800469 414.216000
   1508   1512   1513     1   109.8800469 414.216000
   1508   1512   1514     1   109.8800469 414.216000
   1508   1515   1516     1   109.8800469 414.216000
   1508   1515   1517     1   109.8800469 414.216000
   1509   1521   1522     1   109.8000471 387.438400
   1509   1521   1523     1   109.8000471 387.438400
   1510   1509   1521     1   109.5600471 388.275200
   1510   1509   1511     1   108.4600466 328.025600
   1511   1509   1521     1   109.5600471 388.275200
   1512   1524   1525     1   109.8000471 387.438400
   1512   1524   1526     1   109.8000471 387.438400
   1513   1512   1524     1   109.5600471 388.275200
   1513   1512   1514     1   108.4600466 328.025600
   1514   1512   1524     1   109.5600471 388.275200
   1515   1518   1519     1   109.8000471 387.438400
   1515   1518   1520     1   109.8000471 387.438400
   1516   1515   1518     1   109.5600471 388.275200
   1516   1515   1517     1   108.4600466 328.025600
   1517   1515   1518     1   109.5600471 388.275200
   1518   1527   1528     1   109.5600471 388.275200
   1518   1527   1529     1   109.5600471 388.275200
   1519   1518   1527     1   109.8000471 387.438400
   1519   1518   1520     1   107.5800459 329.699200
   1520   1518   1527     1   109.8000471 387.438400
   1521   1533   1534     1   109.5600471 388.275200
   1521   1533   1535     1   109.5600471 388.275200
   1522   1521   1533     1   109.8000471 387.438400
   1522   1521   1523     1   107.5800459 329.699200
   1523   1521   1533     1   109.8000471 387.438400
   1524   1530   1531     1   109.5600471 388.275200
   1524   1530   1532     1   109.5600471 388.275200
   1525   1524   1530     1   109.8000471 387.438400
   1525   1524   1526     1   107.5800459 329.699200
   1526   1524   1530     1   109.8000471 387.438400
   1528   1527   1536     1   109.7800468 425.094400
   1528   1527   1529     1   108.4600466 328.025600
   1529   1527   1536     1   109.7800468 425.094400
   1531   1530   3128     1   109.7800468 425.094400
   1531   1530   1532     1   108.4600466 328.025600
   1532   1530   3128     1   109.7800468 425.094400
   1534   1533   3159     1   109.7800468 425.094400
   1534   1533   1535     1   108.4600466 328.025600
   1535   1533   3159     1   109.7800468 425.094400
   1537   1538   1539     1   109.8800469 414.216000
   1537   1538   1540     1   109.8800469 414.216000
   1537   1541   1542     1   109.8800469 414.216000
   1537   1541   1543     1   109.8800469 414.216000
   1537   1544   1545     1   109.8800469 414.216000
   1537   1544   1546     1   109.8800469 414.216000
   1538   1550   1551     1   109.8000471 387.438400
   1538   1550   1552     1   109.8000471 387.438400
   1539   1538   1550     1   109.5600471 388.275200
   1539   1538   1540     1   108.4600466 328.025600
   1540   1538   1550     1   109.5600471 388.275200
   1541   1553   1554     1   109.8000471 387.438400
   1541   1553   1555     1   109.8000471 387.438400
   1542   1541   1553     1   109.5600471 388.275200
   1542   1541   1543     1   108.4600466 328.025600
   1543   1541   1553     1   109.5600471 388.275200
   1544   1547   1548     1   109.8000471 387.438400
   1544   1547   1549     1   109.8000471 387.438400
   1545   1544   1547     1   109.5600471 388.275200
   1545   1544   1546     1   108.4600466 328.025600
   1546   1544   1547     1   109.5600471 388.275200
   1547   1556   1557     1   109.5600471 388.275200
   1547   1556   1558     1   109.5600471 388.275200
   1548   1547   1556     1   109.8000471 387.438400
   1548   1547   1549     1   107.5800459 329.699200
   1549   1547   1556     1   109.8000471 387.438400
   1550   1562   1563     1   109.5600471 388.275200
   1550   1562   1564     1   109.5600471 388.275200
   1551   1550   1562     1   109.8000471 387.438400
   1551   1550   1552     1   107.5800459 329.699200
   1552   1550   1562     1   109.8000471 387.438400
   1553   1559   1560     1   109.5600471 388.275200
   1553   1559   1561     1   109.5600471 388.275200
   1554   1553   1559     1   109.8000471 387.438400
   1554   1553   1555     1   107.5800459 329.699200
   1555   1553   1559     1   109.8000471 387.438400
   1557   1556   1565     1   109.7800468 425.094400
   1557   1556   1558     1   108.4600466 328.025600
   1558   1556   1565     1   109.7800468 425.094400
   1560   1559   3190     1   109.7800468 425.094400
   1560   1559   1561     1   108.4600466 328.025600
   1561   1559   3190     1   109.7800468 425.094400
   1563   1562   3221     1   109.7800468 425.094400
   1563   1562   1564     1   108.4600466 328.025600
   1564   1562   3221     1   109.7800468 425.094400
   1566   1567   1568     1   109.8800469 414.216000
   1566   1567   1569     1   109.8800469 414.216000
   1566   1570   1571     1   109.8800469 414.216000
   1566   1570   1572     1   109.8800469 414.216000
   1566   1573   1574     1   109.8800469 414.216000
   1566   1573   1575     1   109.8800469 414.216000
   1567   1579   1580     1   109.8000471 387.438400
   1567   1579   1581     1   109.8000471 387.438400
   1568   1567   1579     1   109.5600471 388.275200
   1568   1567   1569     1   108.4600466 328.025600
   1569   1567   1579     1   109.5600471 388.275200
   1570   1582   1583     1   109.8000471 387.438400
   1570   1582   1584     1   109.8000471 387.438400
   1571   1570   1582     1   109.5600471 388.275200
   1571   1570   1572     1   108.4600466 328.025600
   1572   1570   1582     1   109.5600471 388.275200
   1573   1576   1577     1   109.8000471 387.438400
   1573   1576   1578     1   109.8000471 387.438400
   1574   1573   1576     1   109.5600471 388.275200
   1574   1573   1575     1   108.4600466 328.025600
   1575   1573   1576     1   109.5600471 388.275200
   1576   1585   1586     1   109.5600471 388.275200
   1576   1585   1587     1   109.5600471 388.275200
   1577   1576   1585     1   109.8000471 387.438400
   1577   1576   1578     1   107.5800459 329.699200
   1578   1576   1585     1   109.8000471 387.438400
   1579   1591   1592     1   109.5600471 388.275200
   1579   1591   1593     1   109.5600471 388.275200
   1580   1579   1591     1   109.8000471 387.438400
   1580   1579   1581     1   107.5800459 329.699200
   1581   1579   1591     1   109.8000471 387.438400
   1582   1588   1589     1   109.5600471 388.275200
   1582   1588   1590     1   109.5600471 388.275200
   1583   1582   1588     1   109.8000471 387.438400
   1583   1582   1584     1   107.5800459 329.699200
   1584   1582   1588     1   109.8000471 387.438400
   1586   1585   1594     1   109.7800468 425.094400
   1586   1585   1587     1   108.4600466 328.025600
   1587   1585   1594     1   109.7800468 425.094400
   1589   1588   3252     1   109.7800468 425.094400
   1589   1588   1590     1   108.4600466 328.025600
   1590   1588   3252     1   109.7800468 425.094400
   1592   1591   3283     1   109.7800468 425.094400
   1592   1591   1593     1   108.4600466 328.025600
   1593   1591   3283     1   109.7800468 425.094400
   1595   1596   1597     1   109.8800469 414.216000
   1595   1596   1598     1   109.8800469 414.216000
   1595   1599   1600     1   109.8800469 414.216000
   1595   1599   1601     1   109.8800469 414.216000
   1595   1602   1603     1   109.8800469 414.216000
   1595   1602   1604     1   109.8800469 414.216000
   1596   1608   1609     1   109.8000471 387.438400
   1596   1608   1610     1   109.8000471 387.438400
   1597   1596   1608     1   109.5600471 388.275200
   1597   1596   1598     1   108.4600466 328.025600
   1598   1596   1608     1   109.5600471 388.275200
   1599   1611   1612     1   109.8000471 387.438400
   1599   1611   1613     1   109.8000471 387.438400
   1600   1599   1611     1   109.5600471 388.275200
   1600   1599   1601     1   108.4600466 328.025600
   1601   1599   1611     1   109.5600471 388.275200
   1602   1605   1606     1   109.8000471 387.438400
   1602   1605   1607     1   109.8000471 387.438400
   1603   1602   1605     1   109.5600471 388.275200
   1603   1602   1604     1   108.4600466 328.025600
   1604   1602   1605     1   109.5600471 388.275200
   1605   1614   1615     1   109.5600471 388.275200
   1605   1614   1616     1   109.5600471 388.275200
   1606   1605   1614     1   109.8000471 387.438400
   1606   1605   1607     1   107.5800459 329.699200
   1607   1605   1614     1   109.8000471 387.438400
   1608   1620   1621     1   109.5600471 388.275200
   1608   1620   1622     1   109.5600471 388.275200
   1609   1608   1620     1   109.8000471 387.438400
   1609   1608   1610     1   107.5800459 329.699200
   1610   1608   1620     1   109.8000471 387.438400
   1611   1617   1618     1   109.5600471 388.275200
   1611   1617   1619     1   109.5600471 388.275200
   1612   1611   1617     1   109.8000471 387.438400
   1612   1611   1613     1   107.5800459 329.699200
   1613   1611   1617     1   109.8000471 387.438400
   1615   1614   1623     1   109.7800468 425.094400
   1615   1614   1616     1   108.4600466 328.025600
   1616   1614   1623     1   109.7800468 425.094400
   1618   1617   3314     1   109.7800468 425.094400
   1618   1617   1619     1   108.4600466 328.025600
   1619   1617   3314     1   109.7800468 425.094400
   1621   1620   3345     1   109.7800468 425.094400
   1621   1620   1622     1   108.4600466 328.025600
   1622   1620   3345     1   109.7800468 425.094400
   1624   1625   1626     1   109.8800469 414.216000
   1624   1625   1627     1   109.8800469 414.216000
   1624   1628   1629     1   109.8800469 414.216000
   1624   1628   1630     1   109.8800469 414.216000
   1624   1631   1632     1   109.8800469 414.216000
   1624   1631   1633     1   109.8800469 414.216000
   1625   1637   1638     1   109.8000471 387.438400
   1625   1637   1639     1   109.8000471 387.438400
   1626   1625   1637     1   109.5600471 388.275200
   1626   1625   1627     1   108.4600466 328.025600
   1627   1625   1637     1   109.5600471 388.275200
   1628   1640   1641     1   109.8000471 387.438400
   1628   1640   1642     1   109.8000471 387.438400
   1629   1628   1640     1   109.5600471 388.275200
   1629   1628   1630     1   108.4600466 328.025600
   1630   1628   1640     1   109.5600471 388.275200
   1631   1634   1635     1   109.8000471 387.438400
   1631   1634   1636     1   109.8000471 387.438400
   1632   1631   1634     1   109.5600471 388.275200
   1632   1631   1633     1   108.4600466 328.025600
   1633   1631   1634     1   109.5600471 388.275200
   1634   1643   1644     1   109.5600471 388.275200
   1634   1643   1645     1   109.5600471 388.275200
   1635   1634   1643     1   109.8000471 387.438400
   1635   1634   1636     1   107.5800459 329.699200
   1636   1634   1643     1   109.8000471 387.438400
   1637   1649   1650     1   109.5600471 388.275200
   1637   1649   1651     1   109.5600471 388.275200
   1638   1637   1649     1   109.8000471 387.438400
   1638   1637   1639     1   107.5800459 329.699200
   1639   1637   1649     1   109.8000471 387.438400
   1640   1646   1647     1   109.5600471 388.275200
   1640   1646   1648     1   109.5600471 388.275200
   1641   1640   1646     1   109.8000471 387.438400
   1641   1640   1642     1   107.5800459 329.699200
   1642   1640   1646     1   109.8000471 387.438400
   1644   1643   1652     1   109.7800468 425.094400
   1644   1643   1645     1   108.4600466 328.025600
   1645   1643   1652     1   109.7800468 425.094400
   1647   1646   3376     1   109.7800468 425.094400
   1647   1646   1648     1   108.4600466 328.025600
   1648   1646   3376     1   109.7800468 425.094400
   1650   1649   3407     1   109.7800468 425.094400
   1650   1649   1651     1   108.4600466 328.025600
   1651   1649   3407     1   109.7800468 425.094400
   1653   1654   1655     1   109.8800469 414.216000
   1653   1654   1656     1   109.8800469 414.216000
   1653   1657   1658     1   109.8800469 414.216000
   1653   1657   1659     1   109.8800469 414.216000
   1653   1660   1661     1   109.8800469 414.216000
   1653   1660   1662     1   109.8800469 414.216000
   1654   1666   1667     1   109.8000471 387.438400
   1654   1666   1668     1   109.8000471 387.438400
   1655   1654   1666     1   109.5600471 388.275200
   1655   1654   1656     1   108.4600466 328.025600
   1656   1654   1666     1   109.5600471 388.275200
   1657   1669   1670     1   109.8000471 387.438400
   1657   1669   1671     1   109.8000471 387.438400
   1658   1657   1669     1   109.5600471 388.275200
   1658   1657   1659     1   108.4600466 328.025600
   1659   1657   1669     1   109.5600471 388.275200
   1660   1663   1664     1   109.8000471 387.438400
   1660   1663   1665     1   109.8000471 387.438400
   1661   1660   1663     1   109.5600471 388.275200
   1661   1660   1662     1   108.4600466 328.025600
   1662   1660   1663     1   109.5600471 388.275200
   1663   1672   1673     1   109.5600471 388.275200
   1663   1672   1674     1   109.5600471 388.275200
   1664   1663   1672     1   109.8000471 387.438400
   1664   1663   1665     1   107.5800459 329.699200
   1665   1663   1672     1   109.8000471 387.438400
   1666   1678   1679     1   109.5600471 388.275200
   1666   1678   1680     1   109.5600471 388.275200
   1667   1666   1678     1   109.8000471 387.438400
   1667   1666   1668     1   107.5800459 329.699200
   1668   1666   1678     1   109.8000471 387.438400
   1669   1675   1676     1   109.5600471 388.275200
   1669   1675   1677     1   109.5600471 388.275200
   1670   1669   1675     1   109.8000471 387.438400
   1670   1669   1671     1   107.5800459 329.699200
   1671   1669   1675     1   109.8000471 387.438400
   1673   1672   1681     1   109.7800468 425.094400
   1673   1672   1674     1   108.4600466 328.025600
   1674   1672   1681     1   109.7800468 425.094400
   1676   1675   3438     1   109.7800468 425.094400
   1676   1675   1677     1   108.4600466 328.025600
   1677   1675   3438     1   109.7800468 425.094400
   1679   1678   3469     1   109.7800468 425.094400
   1679   1678   1680     1   108.4600466 328.025600
   1680   1678   3469     1   109.7800468 425.094400
   1682   1683   1684     1   109.8800469 414.216000
   1682   1683   1685     1   109.8800469 414.216000
   1682   1686   1687     1   109.8800469 414.216000
   1682   1686   1688     1   109.8800469 414.216000
   1682   1689   1690     1   109.8800469 414.216000
   1682   1689   1691     1   109.8800469 414.216000
   1683   1695   1696     1   109.8000471 387.438400
   1683   1695   1697     1   109.8000471 387.438400
   1684   1683   1695     1   109.5600471 388.275200
   1684   1683   1685     1   108.4600466 328.025600
   1685   1683   1695     1   109.5600471 388.275200
   1686   1698   1699     1   109.8000471 387.438400
   1686   1698   1700     1   109.8000471 387.438400
   1687   1686   1698     1   109.5600471 388.275200
   1687   1686   1688     1   108.4600466 328.025600
   1688   1686   1698     1   109.5600471 388.275200
   1689   1692   1693     1   109.8000471 387.438400
   1689   1692   1694     1   109.8000471 387.438400
   1690   1689   1692     1   109.5600471 388.275200
   1690   1689   1691     1   108.4600466 328.025600
   1691   1689   1692     1   109.5600471 388.275200
   1692   1701   1702     1   109.5600471 388.275200
   1692   1701   1703     1   109.5600471 388.275200
   1693   1692   1701     1   109.8000471 387.438400
   1693   1692   1694     1   107.5800459 329.699200
   1694   1692   1701     1   109.8000471 387.438400
   1695   1707   1708     1   109.5600471 388.275200
   1695   1707   1709     1   109.5600471 388.275200
   1696   1695   1707     1   109.8000471 387.438400
   1696   1695   1697     1   107.5800459 329.699200
   1697   1695   1707     1   109.8000471 387.438400
   1698   1704   1705     1   109.5600471 388.275200
   1698   1704   1706     1   109.5600471 388.275200
   1699   1698   1704     1   109.8000471 387.438400
   1699   1698   1700     1   107.5800459 329.699200
   1700   1698   1704     1   109.8000471 387.438400
   1702   1701   1710     1   109.7800468 425.094400
   1702   1701   1703     1   108.4600466 328.025600
   1703   1701   1710     1   109.7800468 425.094400
   1705   1704   3500     1   109.7800468 425.094400
   1705   1704   1706     1   108.4600466 328.025600
   1706   1704   3500     1   109.7800468 425.094400
   1708   1707   3531     1   109.7800468 425.094400
   1708   1707   1709     1   108.4600466 328.025600
   1709   1707   3531     1   109.7800468 425.094400
   1711   1712   1713     1   109.8800469 414.216000
   1711   1712   1714     1   109.8800469 414.216000
   1711   1715   1716     1   109.8800469 414.216000
   1711   1715   1717     1   109.8800469 414.216000
   1711   1718   1719     1   109.8800469 414.216000
   1711   1718   1720     1   109.8800469 414.216000
   1712   1724   1725     1   109.8000471 387.438400
   1712   1724   1726     1   109.8000471 387.438400
   1713   1712   1724     1   109.5600471 388.275200
   1713   1712   1714     1   108.4600466 328.025600
   1714   1712   1724     1   109.5600471 388.275200
   1715   1727   1728     1   109.8000471 387.438400
   1715   1727   1729     1   109.8000471 387.438400
   1716   1715   1727     1   109.5600471 388.275200
   1716   1715   1717     1   108.4600466 328.025600
   1717   1715   1727     1   109.5600471 388.275200
   1718   1721   1722     1   109.8000471 387.438400
   1718   1721   1723     1   109.8000471 387.438400
   1719   1718   1721     1   109.5600471 388.275200
   1719   1718   1720     1   108.4600466 328.025600
   1720   1718   1721     1   109.5600471 388.275200
   1721   1730   1731     1   109.5600471 388.275200
   1721   1730   1732     1   109.5600471 388.275200
   1722   1721   1730     1   109.8000471 387.438400
   1722   1721   1723     1   107.5800459 329.699200
   1723   1721   1730     1   109.8000471 387.438400
   1724   1736   1737     1   109.5600471 388.275200
   1724   1736   1738     1   109.5600471 388.275200
   1725   1724   1736     1   109.8000471 387.438400
   1725   1724   1726     1   107.5800459 329.699200
   1726   1724   1736     1   109.8000471 387.438400
   1727   1733   1734     1   109.5600471 388.275200
   1727   1733   1735     1   109.5600471 388.275200
   1728   1727   1733     1   109.8000471 387.438400
   1728   1727   1729     1   107.5800459 329.699200
   1729   1727   1733     1   109.8000471 387.438400
   1731   1730   1739     1   109.7800468 425.094400
   1731   1730   1732     1   108.4600466 328.025600
   1732   1730   1739     1   109.7800468 425.094400
   1734   1733   3562     1   109.7800468 425.094400
   1734   1733   1735     1   108.4600466 328.025600
   1735   1733   3562     1   109.7800468 425.094400
   1737   1736   3593     1   109.7800468 425.094400
   1737   1736   1738     1   108.4600466 328.025600
   1738   1736   3593     1   109.7800468 425.094400
   1740   1741   1742     1   109.8800469 414.216000
   1740   1741   1743     1   109.8800469 414.216000
   1740   1744   1745     1   109.8800469 414.216000
   1740   1744   1746     1   109.8800469 414.216000
   1740   1747   1748     1   109.8800469 414.216000
   1740   1747   1749     1   109.8800469 414.216000
   1741   1753   1754     1   109.8000471 387.438400
   1741   1753   1755     1   109.8000471 387.438400
   1742   1741   1753     1   109.5600471 388.275200
   1742   1741   1743     1   108.4600466 328.025600
   1743   1741   1753     1   109.5600471 388.275200
   1744   1756   1757     1   109.8000471 387.438400
   1744   1756   1758     1   109.8000471 387.438400
   1745   1744   1756     1   109.5600471 388.275200
   1745   1744   1746     1   108.4600466 328.025600
   1746   1744   1756     1   109.5600471 388.275200
   1747   1750   1751     1   109.8000471 387.438400
   1747   1750   1752     1   109.8000471 387.438400
   1748   1747   1750     1   109.5600471 388.275200
   1748   1747   1749     1   108.4600466 328.025600
   1749   1747   1750     1   109.5600471 388.275200
   1750   1759   1760     1   109.5600471 388.275200
   1750   1759   1761     1   109.5600471 388.275200
   1751   1750   1759     1   109.8000471 387.438400
   1751   1750   1752     1   107.5800459 329.699200
   1752   1750   1759     1   109.8000471 387.438400
   1753   1765   1766     1   109.5600471 388.275200
   1753   1765   1767     1   109.5600471 388.275200
   1754   1753   1765     1   109.8000471 387.438400
   1754   1753   1755     1   107.5800459 329.699200
   1755   1753   1765     1   109.8000471 387.438400
   1756   1762   1763     1   109.5600471 388.275200
   1756   1762   1764     1   109.5600471 388.275200
   1757   1756   1762     1   109.8000471 387.438400
   1757   1756   1758     1   107.5800459 329.699200
   1758   1756   1762     1   109.8000471 387.438400
   1760   1759   1768     1   109.7800468 425.094400
   1760   1759   1761     1   108.4600466 328.025600
   1761   1759   1768     1   109.7800468 425.094400
   1763   1762   3624     1   109.7800468 425.094400
   1763   1762   1764     1   108.4600466 328.025600
   1764   1762   3624     1   109.7800468 425.094400
   1766   1765   3655     1   109.7800468 425.094400
   1766   1765   1767     1   108.4600466 328.025600
   1767   1765   3655     1   109.7800468 425.094400
   1769   1770   1771     1   109.8800469 414.216000
   1769   1770   1772     1   109.8800469 414.216000
   1769   1773   1774     1   109.8800469 414.216000
   1769   1773   1775     1   109.8800469 414.216000
   1769   1776   1777     1   109.8800469 414.216000
   1769   1776   1778     1   109.8800469 414.216000
   1770   1782   1783     1   109.8000471 387.438400
   1770   1782   1784     1   109.8000471 387.438400
   1771   1770   1782     1   109.5600471 388.275200
   1771   1770   1772     1   108.4600466 328.025600
   1772   1770   1782     1   109.5600471 388.275200
   1773   1785   1786     1   109.8000471 387.438400
   1773   1785   1787     1   109.8000471 387.438400
   1774   1773   1785     1   109.5600471 388.275200
   1774   1773   1775     1   108.4600466 328.025600
   1775   1773   1785     1   109.5600471 388.275200
   1776   1779   1780     1   109.8000471 387.438400
   1776   1779   1781     1   109.8000471 387.438400
   1777   1776   1779     1   109.5600471 388.275200
   1777   1776   1778     1   108.4600466 328.025600
   1778   1776   1779     1   109.5600471 388.275200
   1779   1788   1789     1   109.5600471 388.275200
   1779   1788   1790     1   109.5600471 388.275200
   1780   1779   1788     1   109.8000471 387.438400
   1780   1779   1781     1   107.5800459 329.699200
   1781   1779   1788     1   109.8000471 387.438400
   1782   1794   1795     1   109.5600471 388.275200
   1782   1794   1796     1   109.5600471 388.275200
   1783   1782   1794     1   109.8000471 387.438400
   1783   1782   1784     1   107.5800459 329.699200
   1784   1782   1794     1   109.8000471 387.438400
   1785   1791   1792     1   109.5600471 388.275200
   1785   1791   1793     1   109.5600471 388.275200
   1786   1785   1791     1   109.8000471 387.438400
   1786   1785   1787     1   107.5800459 329.699200
   1787   1785   1791     1   109.8000471 387.438400
   1789   1788   1797     1   109.7800468 425.094400
   1789   1788   1790     1   108.4600466 328.025600
   1790   1788   1797     1   109.7800468 425.094400
   1792   1791   3686     1   109.7800468 425.094400
   1792   1791   1793     1   108.4600466 328.025600
   1793   1791   3686     1   109.7800468 425.094400
   1795   1794   3717     1   109.7800468 425.094400
   1795   1794   1796     1   108.4600466 328.025600
   1796   1794   3717     1   109.7800468 425.094400
   1798   1799   1800     1   109.8800469 414.216000
   1798   1799   1801     1   109.8800469 414.216000
   1798   1802   1803     1   109.8800469 414.216000
   1798   1802   1804     1   109.8800469 414.216000
   1798   1805   1806     1   109.8800469 414.216000
   1798   1805   1807     1   109.8800469 414.216000
   1799   1811   1812     1   109.8000471 387.438400
   1799   1811   1813     1   109.8000471 387.438400
   1800   1799   1811     1   109.5600471 388.275200
   1800   1799   1801     1   108.4600466 328.025600
   1801   1799   1811     1   109.5600471 388.275200
   1802   1814   1815     1   109.8000471 387.438400
   1802   1814   1816     1   109.8000471 387.438400
   1803   1802   1814     1   109.5600471 388.275200
   1803   1802   1804     1   108.4600466 328.025600
   1804   1802   1814     1   109.5600471 388.275200
   1805   1808   1809     1   109.8000471 387.438400
   1805   1808   1810     1   109.8000471 387.438400
   1806   1805   1808     1   109.5600471 388.275200
   1806   1805   1807     1   108.4600466 328.025600
   1807   1805   1808     1   109.5600471 388.275200
   1808   1817   1818     1   109.5600471 388.275200
   1808   1817   1819     1   109.5600471 388.275200
   1809   1808   1817     1   109.8000471 387.438400
   1809   1808   1810     1   107.5800459 329.699200
   1810   1808   1817     1   109.8000471 387.438400
   1811   1823   1824     1   109.5600471 388.275200
   1811   1823   1825     1   109.5600471 388.275200
   1812   1811   1823     1   109.8000471 387.438400
   1812   1811   1813     1   107.5800459 329.699200
   1813   1811   1823     1   109.8000471 387.438400
   1814   1820   1821     1   109.5600471 388.275200
   1814   1820   1822     1   109.5600471 388.275200
   1815   1814   1820     1   109.8000471 387.438400
   1815   1814   1816     1   107.5800459 329.699200
   1816   1814   1820     1   109.8000471 387.438400
   1818   1817   1826     1   109.7800468 425.094400
   1818   1817   1819     1   108.4600466 328.025600
   1819   1817   1826     1   109.7800468 425.094400
   1821   1820   3748     1   109.7800468 425.094400
   1821   1820   1822     1   108.4600466 328.025600
   1822   1820   3748     1   109.7800468 425.094400
   1824   1823   3779     1   109.7800468 425.094400
   1824   1823   1825     1   108.4600466 328.025600
   1825   1823   3779     1   109.7800468 425.094400
   1827   1828   1829     1   109.8800469 414.216000
   1827   1828   1830     1   109.8800469 414.216000
   1827   1831   1832     1   109.8800469 414.216000
   1827   1831   1833     1   109.8800469 414.216000
   1827   1834   1835     1   109.8800469 414.216000
   1827   1834   1836     1   109.8800469 414.216000
   1828   1840   1841     1   109.8000471 387.438400
   1828   1840   1842     1   109.8000471 387.438400
   1829   1828   1840     1   109.5600471 388.275200
   1829   1828   1830     1   108.4600466 328.025600
   1830   1828   1840     1   109.5600471 388.275200
   1831   1843   1844     1   109.8000471 387.438400
   1831   1843   1845     1   109.8000471 387.438400
   1832   1831   1843     1   109.5600471 388.275200
   1832   1831   1833     1   108.4600466 328.025600
   1833   1831   1843     1   109.5600471 388.275200
   1834   1837   1838     1   109.8000471 387.438400
   1834   1837   1839     1   109.8000471 387.438400
   1835   1834   1837     1   109.5600471 388.275200
   1835   1834   1836     1   108.4600466 328.025600
   1836   1834   1837     1   109.5600471 388.275200
   1837   1846   1847     1   109.5600471 388.275200
   1837   1846   1848     1   109.5600471 388.275200
   1838   1837   1846     1   109.8000471 387.438400
   1838   1837   1839     1   107.5800459 329.699200
   1839   1837   1846     1   109.8000471 387.438400
   1840   1852   1853     1   109.5600471 388.275200
   1840   1852   1854     1   109.5600471 388.275200
   1841   1840   1852     1   109.8000471 387.438400
   1841   1840   1842     1   107.5800459 329.699200
   1842   1840   1852     1   109.8000471 387.438400
   1843   1849   1850     1   109.5600471 388.275200
   1843   1849   1851     1   109.5600471 388.275200
   1844   1843   1849     1   109.8000471 387.438400
   1844   1843   1845     1   107.5800459 329.699200
   1845   1843   1849     1   109.8000471 387.438400
   1847   1846   1855     1   109.7800468 425.094400
   1847   1846   1848     1   108.4600466 328.025600
   1848   1846   1855     1   109.7800468 425.094400
   1850   1849   3810     1   109.7800468 425.094400
   1850   1849   1851     1   108.4600466 328.025600
   1851   1849   3810     1   109.7800468 425.094400
   1853   1852   3841     1   109.7800468 425.094400
   1853   1852   1854     1   108.4600466 328.025600
   1854   1852   3841     1   109.7800468 425.094400
   1856   1857   1858     1   109.8800469 414.216000
   1856   1857   1859     1   109.8800469 414.216000
   1856   1860   1861     1   109.8800469 414.216000
   1856   1860   1862     1   109.8800469 414.216000
   1856   1863   1864     1   109.8800469 414.216000
   1856   1863   1865     1   109.8800469 414.216000
   1857   1869   1870     1   109.8000471 387.438400
   1857   1869   1871     1   109.8000471 387.438400
   1858   1857   1869     1   109.5600471 388.275200
   1858   1857   1859     1   108.4600466 328.025600
   1859   1857   1869     1   109.5600471 388.275200
   1860   1872   1873     1   109.8000471 387.438400
   1860   1872   1874     1   109.8000471 387.438400
   1861   1860   1872     1   109.5600471 388.275200
   1861   1860   1862     1   108.4600466 328.025600
   1862   1860   1872     1   109.5600471 388.275200
   1863   1866   1867     1   109.8000471 387.438400
   1863   1866   1868     1   109.8000471 387.438400
   1864   1863   1866     1   109.5600471 388.275200
   1864   1863   1865     1   108.4600466 328.025600
   1865   1863   1866     1   109.5600471 388.275200
   1866   1875   1876     1   109.5600471 388.275200
   1866   1875   1877     1   109.5600471 388.275200
   1867   1866   1875     1   109.8000471 387.438400
   1867   1866   1868     1   107.5800459 329.699200
   1868   1866   1875     1   109.8000471 387.438400
   1869   1881   1882     1   109.5600471 388.275200
   1869   1881   1883     1   109.5600471 388.275200
   1870   1869   1881     1   109.8000471 387.438400
   1870   1869   1871     1   107.5800459 329.699200
   1871   1869   1881     1   109.8000471 387.438400
   1872   1878   1879     1   109.5600471 388.275200
   1872   1878   1880     1   109.5600471 388.275200
   1873   1872   1878     1   109.8000471 387.438400
   1873   1872   1874     1   107.5800459 329.699200
   1874   1872   1878     1   109.8000471 387.438400
   1876   1875   1884     1   109.7800468 425.094400
   1876   1875   1877     1   108.4600466 328.025600
   1877   1875   1884     1   109.7800468 425.094400
   1879   1878   3872     1   109.7800468 425.094400
   1879   1878   1880     1   108.4600466 328.025600
   1880   1878   3872     1   109.7800468 425.094400
   1882   1881   3903     1   109.7800468 425.094400
   1882   1881   1883     1   108.4600466 328.025600
   1883   1881   3903     1   109.7800468 425.094400
   1885   1886   1887     1   109.8800469 414.216000
   1885   1886   1888     1   109.8800469 414.216000
   1885   1889   1890     1   109.8800469 414.216000
   1885   1889   1891     1   109.8800469 414.216000
   1885   1892   1893     1   109.8800469 414.216000
   1885   1892   1894     1   109.8800469 414.216000
   1886   1898   1899     1   109.8000471 387.438400
   1886   1898   1900     1   109.8000471 387.438400
   1887   1886   1898     1   109.5600471 388.275200
   1887   1886   1888     1   108.4600466 328.025600
   1888   1886   1898     1   109.5600471 388.275200
   1889   1901   1902     1   109.8000471 387.438400
   1889   1901   1903     1   109.8000471 387.438400
   1890   1889   1901     1   109.5600471 388.275200
   1890   1889   1891     1   108.4600466 328.025600
   1891   1889   1901     1   109.5600471 388.275200
   1892   1895   1896     1   109.8000471 387.438400
   1892   1895   1897     1   109.8000471 387.438400
   1893   1892   1895     1   109.5600471 388.275200
   1893   1892   1894     1   108.4600466 328.025600
   1894   1892   1895     1   109.5600471 388.275200
   1895   1904   1905     1   109.5600471 388.275200
   1895   1904   1906     1   109.5600471 388.275200
   1896   1895   1904     1   109.8000471 387.438400
   1896   1895   1897     1   107.5800459 329.699200
   1897   1895   1904     1   109.8000471 387.438400
   1898   1910   1911     1   109.5600471 388.275200
   1898   1910   1912     1   109.5600471 388.275200
   1899   1898   1910     1   109.8000471 387.438400
   1899   1898   1900     1   107.5800459 329.699200
   1900   1898   1910     1   109.8000471 387.438400
   1901   1907   1908     1   109.5600471 388.275200
   1901   1907   1909     1   109.5600471 388.275200
   1902   1901   1907     1   109.8000471 387.438400
   1902   1901   1903     1   107.5800459 329.699200
   1903   1901   1907     1   109.8000471 387.438400
   1905   1904   1913     1   109.7800468 425.094400
   1905   1904   1906     1   108.4600466 328.025600
   1906   1904   1913     1   109.7800468 425.094400
   1908   1907   3934     1   109.7800468 425.094400
   1908   1907   1909     1   108.4600466 328.025600
   1909   1907   3934     1   109.7800468 425.094400
   1911   1910   3965     1   109.7800468 425.094400
   1911   1910   1912     1   108.4600466 328.025600
   1912   1910   3965     1   109.7800468 425.094400
   1914   1915   1916     1   109.8800469 414.216000
   1914   1915   1917     1   109.8800469 414.216000
   1914   1918   1919     1   109.8800469 414.216000
   1914   1918   1920     1   109.8800469 414.216000
   1914   1921   1922     1   109.8800469 414.216000
   1914   1921   1923     1   109.8800469 414.216000
   1915   1927   1928     1   109.8000471 387.438400
   1915   1927   1929     1   109.8000471 387.438400
   1916   1915   1927     1   109.5600471 388.275200
   1916   1915   1917     1   108.4600466 328.025600
   1917   1915   1927     1   109.5600471 388.275200
   1918   1930   1931     1   109.8000471 387.438400
   1918   1930   1932     1   109.8000471 387.438400
   1919   1918   1930     1   109.5600471 388.275200
   1919   1918   1920     1   108.4600466 328.025600
   1920   1918   1930     1   109.5600471 388.275200
   1921   1924   1925     1   109.8000471 387.438400
   1921   1924   1926     1   109.8000471 387.438400
   1922   1921   1924     1   109.5600471 388.275200
   1922   1921   1923     1   108.4600466 328.025600
   1923   1921   1924     1   109.5600471 388.275200
   1924   1933   1934     1   109.5600471 388.275200
   1924   1933   1935     1   109.5600471 388.275200
   1925   1924   1933     1   109.8000471 387.438400
   1925   1924   1926     1   107.5800459 329.699200
   1926   1924   1933     1   109.8000471 387.438400
   1927   1939   1940     1   109.5600471 388.275200
   1927   1939   1941     1   109.5600471 388.275200
   1928   1927   1939     1   109.8000471 387.438400
   1928   1927   1929     1   107.5800459 329.699200
   1929   1927   1939     1   109.8000471 387.438400
   1930   1936   1937     1   109.5600471 388.275200
   1930   1936   1938     1   109.5600471 388.275200
   1931   1930   1936     1   109.8000471 387.438400
   1931   1930   1932     1   107.5800459 329.699200
   1932   1930   1936     1   109.8000471 387.438400
   1934   1933   1942     1   109.7800468 425.094400
   1934   1933   1935     1   108.4600466 328.025600
   1935   1933   1942     1   109.7800468 425.094400
   1937   1936   3996     1   109.7800468 425.094400
   1937   1936   1938     1   108.4600466 328.025600
   1938   1936   3996     1   109.7800468 425.094400
   1940   1939   4027     1   109.7800468 425.094400
   1940   1939   1941     1   108.4600466 328.025600
   1941   1939   4027     1   109.7800468 425.094400
   1943   1944   1945     1   109.8800469 414.216000
   1943   1944   1946     1   109.8800469 414.216000
   1943   1947   1948     1   109.8800469 414.216000
   1943   1947   1949     1   109.8800469 414.216000
   1943   1950   1951     1   109.8800469 414.216000
   1943   1950   1952     1   109.8800469 414.216000
   1944   1956   1957     1   109.8000471 387.438400
   1944   1956   1958     1   109.8000471 387.438400
   1945   1944   1956     1   109.5600471 388.275200
   1945   1944   1946     1   108.4600466 328.025600
   1946   1944   1956     1   109.5600471 388.275200
   1947   1959   1960     1   109.8000471 387.438400
   1947   1959   1961     1   109.8000471 387.438400
   1948   1947   1959     1   109.5600471 388.275200
   1948   1947   1949     1   108.4600466 328.025600
   1949   1947   1959     1   109.5600471 388.275200
   1950   1953   1954     1   109.8000471 387.438400
   1950   1953   1955     1   109.8000471 387.438400
   1951   1950   1953     1   109.5600471 388.275200
   1951   1950   1952     1   108.4600466 328.025600
   1952   1950   1953     1   109.5600471 388.275200
   1953   1962   1963     1   109.5600471 388.275200
   1953   1962   1964     1   109.5600471 388.275200
   1954   1953   1962     1   109.8000471 387.438400
   1954   1953   1955     1   107.5800459 329.699200
   1955   1953   1962     1   109.8000471 387.438400
   1956   1968   1969     1   109.5600471 388.275200
   1956   1968   1970     1   109.5600471 388.275200
   1957   1956   1968     1   109.8000471 387.438400
   1957   1956   1958     1   107.5800459 329.699200
   1958   1956   1968     1   109.8000471 387.438400
   1959   1965   1966     1   109.5600471 388.275200
   1959   1965   1967     1   109.5600471 388.275200
   1960   1959   1965     1   109.8000471 387.438400
   1960   1959   1961     1   107.5800459 329.699200
   1961   1959   1965     1   109.8000471 387.438400
   1963   1962   1971     1   109.7800468 425.094400
   1963   1962   1964     1   108.4600466 328.025600
   1964   1962   1971     1   109.7800468 425.094400
   1966   1965   4058     1   109.7800468 425.094400
   1966   1965   1967     1   108.4600466 328.025600
   1967   1965   4058     1   109.7800468 425.094400
   1969   1968   4089     1   109.7800468 425.094400
   1969   1968   1970     1   108.4600466 328.025600
   1970   1968   4089     1   109.7800468 425.094400
   1972   1973   1974     1   109.8800469 414.216000
   1972   1973   1975     1   109.8800469 414.216000
   1972   1976   1977     1   109.8800469 414.216000
   1972   1976   1978     1   109.8800469 414.216000
   1972   1979   1980     1   109.8800469 414.216000
   1972   1979   1981     1   109.8800469 414.216000
   1973   1985   1986     1   109.8000471 387.438400
   1973   1985   1987     1   109.8000471 387.438400
   1974   1973   1985     1   109.5600471 388.275200
   1974   1973   1975     1   108.4600466 328.025600
   1975   1973   1985     1   109.5600471 388.275200
   1976   1988   1989     1   109.8000471 387.438400
   1976   1988   1990     1   109.8000471 387.438400
   1977   1976   1988     1   109.5600471 388.275200
   1977   1976   1978     1   108.4600466 328.025600
   1978   1976   1988     1   109.5600471 388.275200
   1979   1982   1983     1   109.8000471 387.438400
   1979   1982   1984     1   109.8000471 387.438400
   1980   1979   1982     1   109.5600471 388.275200
   1980   1979   1981     1   108.4600466 328.025600
   1981   1979   1982     1   109.5600471 388.275200
   1982   1991   1992     1   109.5600471 388.275200
   1982   1991   1993     1   109.5600471 388.275200
   1983   1982   1991     1   109.8000471 387.438400
   1983   1982   1984     1   107.5800459 329.699200
   1984   1982   1991     1   109.8000471 387.438400
   1985   1997   1998     1   109.5600471 388.275200
   1985   1997   1999     1   109.5600471 388.275200
   1986   1985   1997     1   109.8000471 387.438400
   1986   1985   1987     1   107.5800459 329.699200
   1987   1985   1997     1   109.8000471 387.438400
   1988   1994   1995     1   109.5600471 388.275200
   1988   1994   1996     1   109.5600471 388.275200
   1989   1988   1994     1   109.8000471 387.438400
   1989   1988   1990     1   107.5800459 329.699200
   1990   1988   1994     1   109.8000471 387.438400
   1992   1991   2000     1   109.7800468 425.094400
   1992   1991   1993     1   108.4600466 328.025600
   1993   1991   2000     1   109.7800468 425.094400
   1995   1994   4120     1   109.7800468 425.094400
   1995   1994   1996     1   108.4600466 328.025600
   1996   1994   4120     1   109.7800468 425.094400
   1998   1997   4151     1   109.7800468 425.094400
   1998   1997   1999     1   108.4600466 328.025600
   1999   1997   4151     1   109.7800468 425.094400
   2001   2002   2003     1   109.8800469 414.216000
   2001   2002   2004     1   109.8800469 414.216000
   2001   2005   2006     1   109.8800469 414.216000
   2001   2005   2007     1   109.8800469 414.216000
   2001   2008   2009     1   109.8800469 414.216000
   2001   2008   2010     1   109.8800469 414.216000
   2002   2014   2015     1   109.8000471 387.438400
   2002   2014   2016     1   109.8000471 387.438400
   2003   2002   2014     1   109.5600471 388.275200
   2003   2002   2004     1   108.4600466 328.025600
   2004   2002   2014     1   109.5600471 388.275200
   2005   2017   2018     1   109.8000471 387.438400
   2005   2017   2019     1   109.8000471 387.438400
   2006   2005   2017     1   109.5600471 388.275200
   2006   2005   2007     1   108.4600466 328.025600
   2007   2005   2017     1   109.5600471 388.275200
   2008   2011   2012     1   109.8000471 387.438400
   2008   2011   2013     1   109.8000471 387.438400
   2009   2008   2011     1   109.5600471 388.275200
   2009   2008   2010     1   108.4600466 328.025600
   2010   2008   2011     1   109.5600471 388.275200
   2011   2020   2021     1   109.5600471 388.275200
   2011   2020   2022     1   109.5600471 388.275200
   2012   2011   2020     1   109.8000471 387.438400
   2012   2011   2013     1   107.5800459 329.699200
   2013   2011   2020     1   109.8000471 387.438400
   2014   2026   2027     1   109.5600471 388.275200
   2014   2026   2028     1   109.5600471 388.275200
   2015   2014   2026     1   109.8000471 387.438400
   2015   2014   2016     1   107.5800459 329.699200
   2016   2014   2026     1   109.8000471 387.438400
   2017   2023   2024     1   109.5600471 388.275200
   2017   2023   2025     1   109.5600471 388.275200
   2018   2017   2023     1   109.8000471 387.438400
   2018   2017   2019     1   107.5800459 329.699200
   2019   2017   2023     1   109.8000471 387.438400
   2021   2020   2029     1   109.7800468 425.094400
   2021   2020   2022     1   108.4600466 328.025600
   2022   2020   2029     1   109.7800468 425.094400
   2024   2023   4182     1   109.7800468 425.094400
   2024   2023   2025     1   108.4600466 328.025600
   2025   2023   4182     1   109.7800468 425.094400
   2027   2026   4213     1   109.7800468 425.094400
   2027   2026   2028     1   108.4600466 328.025600
   2028   2026   4213     1   109.7800468 425.094400
   2030   2031   2032     1   109.8800469 414.216000
   2030   2031   2033     1   109.8800469 414.216000
   2030   2034   2035     1   109.8800469 414.216000
   2030   2034   2036     1   109.8800469 414.216000
   2030   2037   2038     1   109.8800469 414.216000
   2030   2037   2039     1   109.8800469 414.216000
   2031   2043   2044     1   109.8000471 387.438400
   2031   2043   2045     1   109.8000471 387.438400
   2032   2031   2043     1   109.5600471 388.275200
   2032   2031   2033     1   108.4600466 328.025600
   2033   2031   2043     1   109.5600471 388.275200
   2034   2046   2047     1   109.8000471 387.438400
   2034   2046   2048     1   109.8000471 387.438400
   2035   2034   2046     1   109.5600471 388.275200
   2035   2034   2036     1   108.4600466 328.025600
   2036   2034   2046     1   109.5600471 388.275200
   2037   2040   2041     1   109.8000471 387.438400
   2037   2040   2042     1   109.8000471 387.438400
   2038   2037   2040     1   109.5600471 388.275200
   2038   2037   2039     1   108.4600466 328.025600
   2039   2037   2040     1   109.5600471 388.275200
   2040   2049   2050     1   109.5600471 388.275200
   2040   2049   2051     1   109.5600471 388.275200
   2041   2040   2049     1   109.8000471 387.438400
   2041   2040   2042     1   107.5800459 329.699200
   2042   2040   2049     1   109.8000471 387.438400
   2043   2055   2056     1   109.5600471 388.275200
   2043   2055   2057     1   109.5600471 388.275200
   2044   2043   2055     1   109.8000471 387.438400
   2044   2043   2045     1   107.5800459 329.699200
   2045   2043   2055     1   109.8000471 387.438400
   2046   2052   2053     1   109.5600471 388.275200
   2046   2052   2054     1   109.5600471 388.275200
   2047   2046   2052     1   109.8000471 387.438400
   2047   2046   2048     1   107.5800459 329.699200
   2048   2046   2052     1   109.8000471 387.438400
   2050   2049   2058     1   109.7800468 425.094400
   2050   2049   2051     1   108.4600466 328.025600
   2051   2049   2058     1   109.7800468 425.094400
   2053   2052   4244     1   109.7800468 425.094400
   2053   2052   2054     1   108.4600466 328.025600
   2054   2052   4244     1   109.7800468 425.094400
   2056   2055   4275     1   109.7800468 425.094400
   2056   2055   2057     1   108.4600466 328.025600
   2057   2055   4275     1   109.7800468 425.094400
   2059   2060   2061     1   109.8800469 414.216000
   2059   2060   2062     1   109.8800469 414.216000
   2059   2063   2064     1   109.8800469 414.216000
   2059   2063   2065     1   109.8800469 414.216000
   2059   2066   2067     1   109.8800469 414.216000
   2059   2066   2068     1   109.8800469 414.216000
   2060   2072   2073     1   109.8000471 387.438400
   2060   2072   2074     1   109.8000471 387.438400
   2061   2060   2072     1   109.5600471 388.275200
   2061   2060   2062     1   108.4600466 328.025600
   2062   2060   2072     1   109.5600471 388.275200
   2063   2075   2076     1   109.8000471 387.438400
   2063   2075   2077     1   109.8000471 387.438400
   2064   2063   2075     1   109.5600471 388.275200
   2064   2063   2065     1   108.4600466 328.025600
   2065   2063   2075     1   109.5600471 388.275200
   2066   2069   2070     1   109.8000471 387.438400
   2066   2069   2071     1   109.8000471 387.438400
   2067   2066   2069     1   109.5600471 388.275200
   2067   2066   2068     1   108.4600466 328.025600
   2068   2066   2069     1   109.5600471 388.275200
   2069   2078   2079     1   109.5600471 388.275200
   2069   2078   2080     1   109.5600471 388.275200
   2070   2069   2078     1   109.8000471 387.438400
   2070   2069   2071     1   107.5800459 329.699200
   2071   2069   2078     1   109.8000471 387.438400
   2072   2084   2085     1   109.5600471 388.275200
   2072   2084   2086     1   109.5600471 388.275200
   2073   2072   2084     1   109.8000471 387.438400
   2073   2072   2074     1   107.5800459 329.699200
   2074   2072   2084     1   109.8000471 387.438400
   2075   2081   2082     1   109.5600471 388.275200
   2075   2081   2083     1   109.5600471 388.275200
   2076   2075   2081     1   109.8000471 387.438400
   2076   2075   2077     1   107.5800459 329.699200
   2077   2075   2081     1   109.8000471 387.438400
   2079   2078   2087     1   109.7800468 425.094400
   2079   2078   2080     1   108.4600466 328.025600
   2080   2078   2087     1   109.7800468 425.094400
   2082   2081   4306     1   109.7800468 425.094400
   2082   2081   2083     1   108.4600466 328.025600
   2083   2081   4306     1   109.7800468 425.094400
   2085   2084   4337     1   109.7800468 425.094400
   2085   2084   2086     1   108.4600466 328.025600
   2086   2084   4337     1   109.7800468 425.094400
   2088   2089   2090     1   109.8800469 414.216000
   2088   2089   2091     1   109.8800469 414.216000
   2088   2092   2093     1   109.8800469 414.216000
   2088   2092   2094     1   109.8800469 414.216000
   2088   2095   2096     1   109.8800469 414.216000
   2088   2095   2097     1   109.8800469 414.216000
   2089   2101   2102     1   109.8000471 387.438400
   2089   2101   2103     1   109.8000471 387.438400
   2090   2089   2101     1   109.5600471 388.275200
   2090   2089   2091     1   108.4600466 328.025600
   2091   2089   2101     1   109.5600471 388.275200
   2092   2104   2105     1   109.8000471 387.438400
   2092   2104   2106     1   109.8000471 387.438400
   2093   2092   2104     1   109.5600471 388.275200
   2093   2092   2094     1   108.4600466 328.025600
   2094   2092   2104     1   109.5600471 388.275200
   2095   2098   2099     1   109.8000471 387.438400
   2095   2098   2100     1   109.8000471 387.438400
   2096   2095   2098     1   109.5600471 388.275200
   2096   2095   2097     1   108.4600466 328.025600
   2097   2095   2098     1   109.5600471 388.275200
   2098   2107   2108     1   109.5600471 388.275200
   2098   2107   2109     1   109.5600471 388.275200
   2099   2098   2107     1   109.8000471 387.438400
   2099   2098   2100     1   107.5800459 329.699200
   2100   2098   2107     1   109.8000471 387.438400
   2101   2113   2114     1   109.5600471 388.275200
   2101   2113   2115     1   109.5600471 388.275200
   2102   2101   2113     1   109.8000471 387.438400
   2102   2101   2103     1   107.5800459 329.699200
   2103   2101   2113     1   109.8000471 387.438400
   2104   2110   2111     1   109.5600471 388.275200
   2104   2110   2112     1   109.5600471 388.275200
   2105   2104   2110     1   109.8000471 387.438400
   2105   2104   2106     1   107.5800459 329.699200
   2106   2104   2110     1   109.8000471 387.438400
   2108   2107   2116     1   109.7800468 425.094400
   2108   2107   2109     1   108.4600466 328.025600
   2109   2107   2116     1   109.7800468 425.094400
   2111   2110   4368     1   109.7800468 425.094400
   2111   2110   2112     1   108.4600466 328.025600
   2112   2110   4368     1   109.7800468 425.094400
   2114   2113   4399     1   109.7800468 425.094400
   2114   2113   2115     1   108.4600466 328.025600
   2115   2113   4399     1   109.7800468 425.094400
   2117   2118   2119     1   109.8800469 414.216000
   2117   2118   2120     1   109.8800469 414.216000
   2117   2121   2122     1   109.8800469 414.216000
   2117   2121   2123     1   109.8800469 414.216000
   2117   2124   2125     1   109.8800469 414.216000
   2117   2124   2126     1   109.8800469 414.216000
   2118   2130   2131     1   109.8000471 387.438400
   2118   2130   2132     1   109.8000471 387.438400
   2119   2118   2130     1   109.5600471 388.275200
   2119   2118   2120     1   108.4600466 328.025600
   2120   2118   2130     1   109.5600471 388.275200
   2121   2133   2134     1   109.8000471 387.438400
   2121   2133   2135     1   109.8000471 387.438400
   2122   2121   2133     1   109.5600471 388.275200
   2122   2121   2123     1   108.4600466 328.025600
   2123   2121   2133     1   109.5600471 388.275200
   2124   2127   2128     1   109.8000471 387.438400
   2124   2127   2129     1   109.8000471 387.438400
   2125   2124   2127     1   109.5600471 388.275200
   2125   2124   2126     1   108.4600466 328.025600
   2126   2124   2127     1   109.5600471 388.275200
   2127   2136   2137     1   109.5600471 388.275200
   2127   2136   2138     1   109.5600471 388.275200
   2128   2127   2136     1   109.8000471 387.438400
   2128   2127   2129     1   107.5800459 329.699200
   2129   2127   2136     1   109.8000471 387.438400
   2130   2142   2143     1   109.5600471 388.275200
   2130   2142   2144     1   109.5600471 388.275200
   2131   2130   2142     1   109.8000471 387.438400
   2131   2130   2132     1   107.5800459 329.699200
   2132   2130   2142     1   109.8000471 387.438400
   2133   2139   2140     1   109.5600471 388.275200
   2133   2139   2141     1   109.5600471 388.275200
   2134   2133   2139     1   109.8000471 387.438400
   2134   2133   2135     1   107.5800459 329.699200
   2135   2133   2139     1   109.8000471 387.438400
   2137   2136   2145     1   109.7800468 425.094400
   2137   2136   2138     1   108.4600466 328.025600
   2138   2136   2145     1   109.7800468 425.094400
   2140   2139   4430     1   109.7800468 425.094400
   2140   2139   2141     1   108.4600466 328.025600
   2141   2139   4430     1   109.7800468 425.094400
   2143   2142   4461     1   109.7800468 425.094400
   2143   2142   2144     1   108.4600466 328.025600
   2144   2142   4461     1   109.7800468 425.094400
   2146   2147   2148     1   109.8800469 414.216000
   2146   2147   2149     1   109.8800469 414.216000
   2146   2150   2151     1   109.8800469 414.216000
   2146   2150   2152     1   109.8800469 414.216000
   2146   2153   2154     1   109.8800469 414.216000
   2146   2153   2155     1   109.8800469 414.216000
   2147   2159   2160     1   109.8000471 387.438400
   2147   2159   2161     1   109.8000471 387.438400
   2148   2147   2159     1   109.5600471 388.275200
   2148   2147   2149     1   108.4600466 328.025600
   2149   2147   2159     1   109.5600471 388.275200
   2150   2162   2163     1   109.8000471 387.438400
   2150   2162   2164     1   109.8000471 387.438400
   2151   2150   2162     1   109.5600471 388.275200
   2151   2150   2152     1   108.4600466 328.025600
   2152   2150   2162     1   109.5600471 388.275200
   2153   2156   2157     1   109.8000471 387.438400
   2153   2156   2158     1   109.8000471 387.438400
   2154   2153   2156     1   109.5600471 388.275200
   2154   2153   2155     1   108.4600466 328.025600
   2155   2153   2156     1   109.5600471 388.275200
   2156   2165   2166     1   109.5600471 388.275200
   2156   2165   2167     1   109.5600471 388.275200
   2157   2156   2165     1   109.8000471 387.438400
   2157   2156   2158     1   107.5800459 329.699200
   2158   2156   2165     1   109.8000471 387.438400
   2159   2171   2172     1   109.5600471 388.275200
   2159   2171   2173     1   109.5600471 388.275200
   2160   2159   2171     1   109.8000471 387.438400
   2160   2159   2161     1   107.5800459 329.699200
   2161   2159   2171     1   109.8000471 387.438400
   2162   2168   2169     1   109.5600471 388.275200
   2162   2168   2170     1   109.5600471 388.275200
   2163   2162   2168     1   109.8000471 387.438400
   2163   2162   2164     1   107.5800459 329.699200
   2164   2162   2168     1   109.8000471 387.438400
   2166   2165   2174     1   109.7800468 425.094400
   2166   2165   2167     1   108.4600466 328.025600
   2167   2165   2174     1   109.7800468 425.094400
   2169   2168   4492     1   109.7800468 425.094400
   2169   2168   2170     1   108.4600466 328.025600
   2170   2168   4492     1   109.7800468 425.094400
   2172   2171   4523     1   109.7800468 425.094400
   2172   2171   2173     1   108.4600466 328.025600
   2173   2171   4523     1   109.7800468 425.094400
   2175   2176   2177     1   109.8800469 414.216000
   2175   2176   2178     1   109.8800469 414.216000
   2175   2179   2180     1   109.8800469 414.216000
   2175   2179   2181     1   109.8800469 414.216000
   2175   2182   2183     1   109.8800469 414.216000
   2175   2182   2184     1   109.8800469 414.216000
   2176   2188   2189     1   109.8000471 387.438400
   2176   2188   2190     1   109.8000471 387.438400
   2177   2176   2188     1   109.5600471 388.275200
   2177   2176   2178     1   108.4600466 328.025600
   2178   2176   2188     1   109.5600471 388.275200
   2179   2191   2192     1   109.8000471 387.438400
   2179   2191   2193     1   109.8000471 387.438400
   2180   2179   2191     1   109.5600471 388.275200
   2180   2179   2181     1   108.4600466 328.025600
   2181   2179   2191     1   109.5600471 388.275200
   2182   2185   2186     1   109.8000471 387.438400
   2182   2185   2187     1   109.8000471 387.438400
   2183   2182   2185     1   109.5600471 388.275200
   2183   2182   2184     1   108.4600466 328.025600
   2184   2182   2185     1   109.5600471 388.275200
   2185   2194   2195     1   109.5600471 388.275200
   2185   2194   2196     1   109.5600471 388.275200
   2186   2185   2194     1   109.8000471 387.438400
   2186   2185   2187     1   107.5800459 329.699200
   2187   2185   2194     1   109.8000471 387.438400
   2188   2200   2201     1   109.5600471 388.275200
   2188   2200   2202     1   109.5600471 388.275200
   2189   2188   2200     1   109.8000471 387.438400
   2189   2188   2190     1   107.5800459 329.699200
   2190   2188   2200     1   109.8000471 387.438400
   2191   2197   2198     1   109.5600471 388.275200
   2191   2197   2199     1   109.5600471 388.275200
   2192   2191   2197     1   109.8000471 387.438400
   2192   2191   2193     1   107.5800459 329.699200
   2193   2191   2197     1   109.8000471 387.438400
   2195   2194   2203     1   109.7800468 425.094400
   2195   2194   2196     1   108.4600466 328.025600
   2196   2194   2203     1   109.7800468 425.094400
   2198   2197   4554     1   109.7800468 425.094400
   2198   2197   2199     1   108.4600466 328.025600
   2199   2197   4554     1   109.7800468 425.094400
   2201   2200   4585     1   109.7800468 425.094400
   2201   2200   2202     1   108.4600466 328.025600
   2202   2200   4585     1   109.7800468 425.094400
   2204   2205   2206     1   109.8800469 414.216000
   2204   2205   2207     1   109.8800469 414.216000
   2204   2208   2209     1   109.8800469 414.216000
   2204   2208   2210     1   109.8800469 414.216000
   2204   2211   2212     1   109.8800469 414.216000
   2204   2211   2213     1   109.8800469 414.216000
   2205   2217   2218     1   109.8000471 387.438400
   2205   2217   2219     1   109.8000471 387.438400
   2206   2205   2217     1   109.5600471 388.275200
   2206   2205   2207     1   108.4600466 328.025600
   2207   2205   2217     1   109.5600471 388.275200
   2208   2220   2221     1   109.8000471 387.438400
   2208   2220   2222     1   109.8000471 387.438400
   2209   2208   2220     1   109.5600471 388.275200
   2209   2208   2210     1   108.4600466 328.025600
   2210   2208   2220     1   109.5600471 388.275200
   2211   2214   2215     1   109.8000471 387.438400
   2211   2214   2216     1   109.8000471 387.438400
   2212   2211   2214     1   109.5600471 388.275200
   2212   2211   2213     1   108.4600466 328.025600
   2213   2211   2214     1   109.5600471 388.275200
   2214   2223   2224     1   109.5600471 388.275200
   2214   2223   2225     1   109.5600471 388.275200
   2215   2214   2223     1   109.8000471 387.438400
   2215   2214   2216     1   107.5800459 329.699200
   2216   2214   2223     1   109.8000471 387.438400
   2217   2229   2230     1   109.5600471 388.275200
   2217   2229   2231     1   109.5600471 388.275200
   2218   2217   2229     1   109.8000471 387.438400
   2218   2217   2219     1   107.5800459 329.699200
   2219   2217   2229     1   109.8000471 387.438400
   2220   2226   2227     1   109.5600471 388.275200
   2220   2226   2228     1   109.5600471 388.275200
   2221   2220   2226     1   109.8000471 387.438400
   2221   2220   2222     1   107.5800459 329.699200
   2222   2220   2226     1   109.8000471 387.438400
   2224   2223   2232     1   109.7800468 425.094400
   2224   2223   2225     1   108.4600466 328.025600
   2225   2223   2232     1   109.7800468 425.094400
   2227   2226   4616     1   109.7800468 425.094400
   2227   2226   2228     1   108.4600466 328.025600
   2228   2226   4616     1   109.7800468 425.094400
   2230   2229   4647     1   109.7800468 425.094400
   2230   2229   2231     1   108.4600466 328.025600
   2231   2229   4647     1   109.7800468 425.094400
   2233   2234   2235     1   109.8800469 414.216000
   2233   2234   2236     1   109.8800469 414.216000
   2233   2237   2238     1   109.8800469 414.216000
   2233   2237   2239     1   109.8800469 414.216000
   2233   2240   2241     1   109.8800469 414.216000
   2233   2240   2242     1   109.8800469 414.216000
   2234   2246   2247     1   109.8000471 387.438400
   2234   2246   2248     1   109.8000471 387.438400
   2235   2234   2246     1   109.5600471 388.275200
   2235   2234   2236     1   108.4600466 328.025600
   2236   2234   2246     1   109.5600471 388.275200
   2237   2249   2250     1   109.8000471 387.438400
   2237   2249   2251     1   109.8000471 387.438400
   2238   2237   2249     1   109.5600471 388.275200
   2238   2237   2239     1   108.4600466 328.025600
   2239   2237   2249     1   109.5600471 388.275200
   2240   2243   2244     1   109.8000471 387.438400
   2240   2243   2245     1   109.8000471 387.438400
   2241   2240   2243     1   109.5600471 388.275200
   2241   2240   2242     1   108.4600466 328.025600
   2242   2240   2243     1   109.5600471 388.275200
   2243   2252   2253     1   109.5600471 388.275200
   2243   2252   2254     1   109.5600471 388.275200
   2244   2243   2252     1   109.8000471 387.438400
   2244   2243   2245     1   107.5800459 329.699200
   2245   2243   2252     1   109.8000471 387.438400
   2246   2258   2259     1   109.5600471 388.275200
   2246   2258   2260     1   109.5600471 388.275200
   2247   2246   2258     1   109.8000471 387.438400
   2247   2246   2248     1   107.5800459 329.699200
   2248   2246   2258     1   109.8000471 387.438400
   2249   2255   2256     1   109.5600471 388.275200
   2249   2255   2257     1   109.5600471 388.275200
   2250   2249   2255     1   109.8000471 387.438400
   2250   2249   2251     1   107.5800459 329.699200
   2251   2249   2255     1   109.8000471 387.438400
   2253   2252   2261     1   109.7800468 425.094400
   2253   2252   2254     1   108.4600466 328.025600
   2254   2252   2261     1   109.7800468 425.094400
   2256   2255   4678     1   109.7800468 425.094400
   2256   2255   2257     1   108.4600466 328.025600
   2257   2255   4678     1   109.7800468 425.094400
   2259   2258   4709     1   109.7800468 425.094400
   2259   2258   2260     1   108.4600466 328.025600
   2260   2258   4709     1   109.7800468 425.094400
   2262   2263   2264     1   109.8800469 414.216000
   2262   2263   2265     1   109.8800469 414.216000
   2262   2266   2267     1   109.8800469 414.216000
   2262   2266   2268     1   109.8800469 414.216000
   2262   2269   2270     1   109.8800469 414.216000
   2262   2269   2271     1   109.8800469 414.216000
   2263   2275   2276     1   109.8000471 387.438400
   2263   2275   2277     1   109.8000471 387.438400
   2264   2263   2275     1   109.5600471 388.275200
   2264   2263   2265     1   108.4600466 328.025600
   2265   2263   2275     1   109.5600471 388.275200
   2266   2278   2279     1   109.8000471 387.438400
   2266   2278   2280     1   109.8000471 387.438400
   2267   2266   2278     1   109.5600471 388.275200
   2267   2266   2268     1   108.4600466 328.025600
   2268   2266   2278     1   109.5600471 388.275200
   2269   2272   2273     1   109.8000471 387.438400
   2269   2272   2274     1   109.8000471 387.438400
   2270   2269   2272     1   109.5600471 388.275200
   2270   2269   2271     1   108.4600466 328.025600
   2271   2269   2272     1   109.5600471 388.275200
   2272   2281   2282     1   109.5600471 388.275200
   2272   2281   2283     1   109.5600471 388.275200
   2273   2272   2281     1   109.8000471 387.438400
   2273   2272   2274     1   107.5800459 329.699200
   2274   2272   2281     1   109.8000471 387.438400
   2275   2287   2288     1   109.5600471 388.275200
   2275   2287   2289     1   109.5600471 388.275200
   2276   2275   2287     1   109.8000471 387.438400
   2276   2275   2277     1   107.5800459 329.699200
   2277   2275   2287     1   109.8000471 387.438400
   2278   2284   2285     1   109.5600471 388.275200
   2278   2284   2286     1   109.5600471 388.275200
   2279   2278   2284     1   109.8000471 387.438400
   2279   2278   2280     1   107.5800459 329.699200
   2280   2278   2284     1   109.8000471 387.438400
   2282   2281   2290     1   109.7800468 425.094400
   2282   2281   2283     1   108.4600466 328.025600
   2283   2281   2290     1   109.7800468 425.094400
   2285   2284   4740     1   109.7800468 425.094400
   2285   2284   2286     1   108.4600466 328.025600
   2286   2284   4740     1   109.7800468 425.094400
   2288   2287   4771     1   109.7800468 425.094400
   2288   2287   2289     1   108.4600466 328.025600
   2289   2287   4771     1   109.7800468 425.094400
   2291   2292   2293     1   109.8800469 414.216000
   2291   2292   2294     1   109.8800469 414.216000
   2291   2295   2296     1   109.8800469 414.216000
   2291   2295   2297     1   109.8800469 414.216000
   2291   2298   2299     1   109.8800469 414.216000
   2291   2298   2300     1   109.8800469 414.216000
   2292   2304   2305     1   109.8000471 387.438400
   2292   2304   2306     1   109.8000471 387.438400
   2293   2292   2304     1   109.5600471 388.275200
   2293   2292   2294     1   108.4600466 328.025600
   2294   2292   2304     1   109.5600471 388.275200
   2295   2307   2308     1   109.8000471 387.438400
   2295   2307   2309     1   109.8000471 387.438400
   2296   2295   2307     1   109.5600471 388.275200
   2296   2295   2297     1   108.4600466 328.025600
   2297   2295   2307     1   109.5600471 388.275200
   2298   2301   2302     1   109.8000471 387.438400
   2298   2301   2303     1   109.8000471 387.438400
   2299   2298   2301     1   109.5600471 388.275200
   2299   2298   2300     1   108.4600466 328.025600
   2300   2298   2301     1   109.5600471 388.275200
   2301   2310   2311     1   109.5600471 388.275200
   2301   2310   2312     1   109.5600471 388.275200
   2302   2301   2310     1   109.8000471 387.438400
   2302   2301   2303     1   107.5800459 329.699200
   2303   2301   2310     1   109.8000471 387.438400
   2304   2316   2317     1   109.5600471 388.275200
   2304   2316   2318     1   109.5600471 388.275200
   2305   2304   2316     1   109.8000471 387.438400
   2305   2304   2306     1   107.5800459 329.699200
   2306   2304   2316     1   109.8000471 387.438400
   2307   2313   2314     1   109.5600471 388.275200
   2307   2313   2315     1   109.5600471 388.275200
   2308   2307   2313     1   109.8000471 387.438400
   2308   2307   2309     1   107.5800459 329.699200
   2309   2307   2313     1   109.8000471 387.438400
   2311   2310   2319     1   109.7800468 425.094400
   2311   2310   2312     1   108.4600466 328.025600
   2312   2310   2319     1   109.7800468 425.094400
   2314   2313   4802     1   109.7800468 425.094400
   2314   2313   2315     1   108.4600466 328.025600
   2315   2313   4802     1   109.7800468 425.094400
   2317   2316   4833     1   109.7800468 425.094400
   2317   2316   2318     1   108.4600466 328.025600
   2318   2316   4833     1   109.7800468 425.094400
   2320   2321   2322     1   109.8800469 414.216000
   2320   2321   2323     1   109.8800469 414.216000
   2320   2324   2325     1   109.8800469 414.216000
   2320   2324   2326     1   109.8800469 414.216000
   2320   2327   2328     1   109.8800469 414.216000
   2320   2327   2329     1   109.8800469 414.216000
   2321   2333   2334     1   109.8000471 387.438400
   2321   2333   2335     1   109.8000471 387.438400
   2322   2321   2333     1   109.5600471 388.275200
   2322   2321   2323     1   108.4600466 328.025600
   2323   2321   2333     1   109.5600471 388.275200
   2324   2336   2337     1   109.8000471 387.438400
   2324   2336   2338     1   109.8000471 387.438400
   2325   2324   2336     1   109.5600471 388.275200
   2325   2324   2326     1   108.4600466 328.025600
   2326   2324   2336     1   109.5600471 388.275200
   2327   2330   2331     1   109.8000471 387.438400
   2327   2330   2332     1   109.8000471 387.438400
   2328   2327   2330     1   109.5600471 388.275200
   2328   2327   2329     1   108.4600466 328.025600
   2329   2327   2330     1   109.5600471 388.275200
   2330   2339   2340     1   109.5600471 388.275200
   2330   2339   2341     1   109.5600471 388.275200
   2331   2330   2339     1   109.8000471 387.438400
   2331   2330   2332     1   107.5800459 329.699200
   2332   2330   2339     1   109.8000471 387.438400
   2333   2345   2346     1   109.5600471 388.275200
   2333   2345   2347     1   109.5600471 388.275200
   2334   2333   2345     1   109.8000471 387.438400
   2334   2333   2335     1   107.5800459 329.699200
   2335   2333   2345     1   109.8000471 387.438400
   2336   2342   2343     1   109.5600471 388.275200
   2336   2342   2344     1   109.5600471 388.275200
   2337   2336   2342     1   109.8000471 387.438400
   2337   2336   2338     1   107.5800459 329.699200
   2338   2336   2342     1   109.8000471 387.438400
   2340   2339   2348     1   109.7800468 425.094400
   2340   2339   2341     1   108.4600466 328.025600
   2341   2339   2348     1   109.7800468 425.094400
   2343   2342   4864     1   109.7800468 425.094400
   2343   2342   2344     1   108.4600466 328.025600
   2344   2342   4864     1   109.7800468 425.094400
   2346   2345   4895     1   109.7800468 425.094400
   2346   2345   2347     1   108.4600466 328.025600
   2347   2345   4895     1   109.7800468 425.094400
   2349   2350   2351     1   109.8800469 414.216000
   2349   2350   2352     1   109.8800469 414.216000
   2349   2353   2354     1   109.8800469 414.216000
   2349   2353   2355     1   109.8800469 414.216000
   2349   2356   2357     1   109.8800469 414.216000
   2349   2356   2358     1   109.8800469 414.216000
   2350   2362   2363     1   109.8000471 387.438400
   2350   2362   2364     1   109.8000471 387.438400
   2351   2350   2362     1   109.5600471 388.275200
   2351   2350   2352     1   108.4600466 328.025600
   2352   2350   2362     1   109.5600471 388.275200
   2353   2365   2366     1   109.8000471 387.438400
   2353   2365   2367     1   109.8000471 387.438400
   2354   2353   2365     1   109.5600471 388.275200
   2354   2353   2355     1   108.4600466 328.025600
   2355   2353   2365     1   109.5600471 388.275200
   2356   2359   2360     1   109.8000471 387.438400
   2356   2359   2361     1   109.8000471 387.438400
   2357   2356   2359     1   109.5600471 388.275200
   2357   2356   2358     1   108.4600466 328.025600
   2358   2356   2359     1   109.5600471 388.275200
   2359   2368   2369     1   109.5600471 388.275200
   2359   2368   2370     1   109.5600471 388.275200
   2360   2359   2368     1   109.8000471 387.438400
   2360   2359   2361     1   107.5800459 329.699200
   2361   2359   2368     1   109.8000471 387.438400
   2362   2374   2375     1   109.5600471 388.275200
   2362   2374   2376     1   109.5600471 388.275200
   2363   2362   2374     1   109.8000471 387.438400
   2363   2362   2364     1   107.5800459 329.699200
   2364   2362   2374     1   109.8000471 387.438400
   2365   2371   2372     1   109.5600471 388.275200
   2365   2371   2373     1   109.5600471 388.275200
   2366   2365   2371     1   109.8000471 387.438400
   2366   2365   2367     1   107.5800459 329.699200
   2367   2365   2371     1   109.8000471 387.438400
   2369   2368   2377     1   109.7800468 425.094400
   2369   2368   2370     1   108.4600466 328.025600
   2370   2368   2377     1   109.7800468 425.094400
   2372   2371   4926     1   109.7800468 425.094400
   2372   2371   2373     1   108.4600466 328.025600
   2373   2371   4926     1   109.7800468 425.094400
   2375   2374   4957     1   109.7800468 425.094400
   2375   2374   2376     1   108.4600466 328.025600
   2376   2374   4957     1   109.7800468 425.094400
   2378   2379   2380     1   109.8800469 414.216000
   2378   2379   2381     1   109.8800469 414.216000
   2378   2382   2383     1   109.8800469 414.216000
   2378   2382   2384     1   109.8800469 414.216000
   2378   2385   2386     1   109.8800469 414.216000
   2378   2385   2387     1   109.8800469 414.216000
   2379   2391   2392     1   109.8000471 387.438400
   2379   2391   2393     1   109.8000471 387.438400
   2380   2379   2391     1   109.5600471 388.275200
   2380   2379   2381     1   108.4600466 328.025600
   2381   2379   2391     1   109.5600471 388.275200
   2382   2394   2395     1   109.8000471 387.438400
   2382   2394   2396     1   109.8000471 387.438400
   2383   2382   2394     1   109.5600471 388.275200
   2383   2382   2384     1   108.4600466 328.025600
   2384   2382   2394     1   109.5600471 388.275200
   2385   2388   2389     1   109.8000471 387.438400
   2385   2388   2390     1   109.8000471 387.438400
   2386   2385   2388     1   109.5600471 388.275200
   2386   2385   2387     1   108.4600466 328.025600
   2387   2385   2388     1   109.5600471 388.275200
   2388   2397   2398     1   109.5600471 388.275200
   2388   2397   2399     1   109.5600471 388.275200
   2389   2388   2397     1   109.8000471 387.438400
   2389   2388   2390     1   107.5800459 329.699200
   2390   2388   2397     1   109.8000471 387.438400
   2391   2403   2404     1   109.5600471 388.275200
   2391   2403   2405     1   109.5600471 388.275200
   2392   2391   2403     1   109.8000471 387.438400
   2392   2391   2393     1   107.5800459 329.699200
   2393   2391   2403     1   109.8000471 387.438400
   2394   2400   2401     1   109.5600471 388.275200
   2394   2400   2402     1   109.5600471 388.275200
   2395   2394   2400     1   109.8000471 387.438400
   2395   2394   2396     1   107.5800459 329.699200
   2396   2394   2400     1   109.8000471 387.438400
   2398   2397   2406     1   109.7800468 425.094400
   2398   2397   2399     1   108.4600466 328.025600
   2399   2397   2406     1   109.7800468 425.094400
   2401   2400   4988     1   109.7800468 425.094400
   2401   2400   2402     1   108.4600466 328.025600
   2402   2400   4988     1   109.7800468 425.094400
   2404   2403   5019     1   109.7800468 425.094400
   2404   2403   2405     1   108.4600466 328.025600
   2405   2403   5019     1   109.7800468 425.094400
   2407   2408   2409     1   109.8800469 414.216000
   2407   2408   2410     1   109.8800469 414.216000
   2407   2411   2412     1   109.8800469 414.216000
   2407   2411   2413     1   109.8800469 414.216000
   2407   2414   2415     1   109.8800469 414.216000
   2407   2414   2416     1   109.8800469 414.216000
   2408   2420   2421     1   109.8000471 387.438400
   2408   2420   2422     1   109.8000471 387.438400
   2409   2408   2420     1   109.5600471 388.275200
   2409   2408   2410     1   108.4600466 328.025600
   2410   2408   2420     1   109.5600471 388.275200
   2411   2423   2424     1   109.8000471 387.438400
   2411   2423   2425     1   109.8000471 387.438400
   2412   2411   2423     1   109.5600471 388.275200
   2412   2411   2413     1   108.4600466 328.025600
   2413   2411   2423     1   109.5600471 388.275200
   2414   2417   2418     1   109.8000471 387.438400
   2414   2417   2419     1   109.8000471 387.438400
   2415   2414   2417     1   109.5600471 388.275200
   2415   2414   2416     1   108.4600466 328.025600
   2416   2414   2417     1   109.5600471 388.275200
   2417   2426   2427     1   109.5600471 388.275200
   2417   2426   2428     1   109.5600471 388.275200
   2418   2417   2426     1   109.8000471 387.438400
   2418   2417   2419     1   107.5800459 329.699200
   2419   2417   2426     1   109.8000471 387.438400
   2420   2432   2433     1   109.5600471 388.275200
   2420   2432   2434     1   109.5600471 388.275200
   2421   2420   2432     1   109.8000471 387.438400
   2421   2420   2422     1   107.5800459 329.699200
   2422   2420   2432     1   109.8000471 387.438400
   2423   2429   2430     1   109.5600471 388.275200
   2423   2429   2431     1   109.5600471 388.275200
   2424   2423   2429     1   109.8000471 387.438400
   2424   2423   2425     1   107.5800459 329.699200
   2425   2423   2429     1   109.8000471 387.438400
   2427   2426   2435     1   109.7800468 425.094400
   2427   2426   2428     1   108.4600466 328.025600
   2428   2426   2435     1   109.7800468 425.094400
   2430   2429   5050     1   109.7800468 425.094400
   2430   2429   2431     1   108.4600466 328.025600
   2431   2429   5050     1   109.7800468 425.094400
   2433   2432   5081     1   109.7800468 425.094400
   2433   2432   2434     1   108.4600466 328.025600
   2434   2432   5081     1   109.7800468 425.094400
   2436   2437   2438     1   109.8800469 414.216000
   2436   2437   2439     1   109.8800469 414.216000
   2436   2440   2441     1   109.8800469 414.216000
   2436   2440   2442     1   109.8800469 414.216000
   2436   2443   2444     1   109.8800469 414.216000
   2436   2443   2445     1   109.8800469 414.216000
   2437   2449   2450     1   109.8000471 387.438400
   2437   2449   2451     1   109.8000471 387.438400
   2438   2437   2449     1   109.5600471 388.275200
   2438   2437   2439     1   108.4600466 328.025600
   2439   2437   2449     1   109.5600471 388.275200
   2440   2452   2453     1   109.8000471 387.438400
   2440   2452   2454     1   109.8000471 387.438400
   2441   2440   2452     1   109.5600471 388.275200
   2441   2440   2442     1   108.4600466 328.025600
   2442   2440   2452     1   109.5600471 388.275200
   2443   2446   2447     1   109.8000471 387.438400
   2443   2446   2448     1   109.8000471 387.438400
   2444   2443   2446     1   109.5600471 388.275200
   2444   2443   2445     1   108.4600466 328.025600
   2445   2443   2446     1   109.5600471 388.275200
   2446   2455   2456     1   109.5600471 388.275200
   2446   2455   2457     1   109.5600471 388.275200
   2447   2446   2455     1   109.8000471 387.438400
   2447   2446   2448     1   107.5800459 329.699200
   2448   2446   2455     1   109.8000471 387.438400
   2449   2461   2462     1   109.5600471 388.275200
   2449   2461   2463     1   109.5600471 388.275200
   2450   2449   2461     1   109.8000471 387.438400
   2450   2449   2451     1   107.5800459 329.699200
   2451   2449   2461     1   109.8000471 387.438400
   2452   2458   2459     1   109.5600471 388.275200
   2452   2458   2460     1   109.5600471 388.275200
   2453   2452   2458     1   109.8000471 387.438400
   2453   2452   2454     1   107.5800459 329.699200
   2454   2452   2458     1   109.8000471 387.438400
   2456   2455   2464     1   109.7800468 425.094400
   2456   2455   2457     1   108.4600466 328.025600
   2457   2455   2464     1   109.7800468 425.094400
   2459   2458   5112     1   109.7800468 425.094400
   2459   2458   2460     1   108.4600466 328.025600
   2460   2458   5112     1   109.7800468 425.094400
   2462   2461   5143     1   109.7800468 425.094400
   2462   2461   2463     1   108.4600466 328.025600
   2463   2461   5143     1   109.7800468 425.094400
   2465   2466   2467     1   109.8800469 414.216000
   2465   2466   2468     1   109.8800469 414.216000
   2465   2469   2470     1   109.8800469 414.216000
   2465   2469   2471     1   109.8800469 414.216000
   2465   2472   2473     1   109.8800469 414.216000
   2465   2472   2474     1   109.8800469 414.216000
   2466   2478   2479     1   109.8000471 387.438400
   2466   2478   2480     1   109.8000471 387.438400
   2467   2466   2478     1   109.5600471 388.275200
   2467   2466   2468     1   108.4600466 328.025600
   2468   2466   2478     1   109.5600471 388.275200
   2469   2481   2482     1   109.8000471 387.438400
   2469   2481   2483     1   109.8000471 387.438400
   2470   2469   2481     1   109.5600471 388.275200
   2470   2469   2471     1   108.4600466 328.025600
   2471   2469   2481     1   109.5600471 388.275200
   2472   2475   2476     1   109.8000471 387.438400
   2472   2475   2477     1   109.8000471 387.438400
   2473   2472   2475     1   109.5600471 388.275200
   2473   2472   2474     1   108.4600466 328.025600
   2474   2472   2475     1   109.5600471 388.275200
   2475   2484   2485     1   109.5600471 388.275200
   2475   2484   2486     1   109.5600471 388.275200
   2476   2475   2484     1   109.8000471 387.438400
   2476   2475   2477     1   107.5800459 329.699200
   2477   2475   2484     1   109.8000471 387.438400
   2478   2490   2491     1   109.5600471 388.275200
   2478   2490   2492     1   109.5600471 388.275200
   2479   2478   2490     1   109.8000471 387.438400
   2479   2478   2480     1   107.5800459 329.699200
   2480   2478   2490     1   109.8000471 387.438400
   2481   2487   2488     1   109.5600471 388.275200
   2481   2487   2489     1   109.5600471 388.275200
   2482   2481   2487     1   109.8000471 387.438400
   2482   2481   2483     1   107.5800459 329.699200
   2483   2481   2487     1   109.8000471 387.438400
   2485   2484   2493     1   109.7800468 425.094400
   2485   2484   2486     1   108.4600466 328.025600
   2486   2484   2493     1   109.7800468 425.094400
   2488   2487   5174     1   109.7800468 425.094400
   2488   2487   2489     1   108.4600466 328.025600
   2489   2487   5174     1   109.7800468 425.094400
   2491   2490   5205     1   109.7800468 425.094400
   2491   2490   2492     1   108.4600466 328.025600
   2492   2490   5205     1   109.7800468 425.094400
   2494   2495   2496     1   109.8800469 414.216000
   2494   2495   2497     1   109.8800469 414.216000
   2494   2498   2499     1   109.8800469 414.216000
   2494   2498   2500     1   109.8800469 414.216000
   2494   2501   2502     1   109.8800469 414.216000
   2494   2501   2503     1   109.8800469 414.216000
   2495   2507   2508     1   109.8000471 387.438400
   2495   2507   2509     1   109.8000471 387.438400
   2496   2495   2507     1   109.5600471 388.275200
   2496   2495   2497     1   108.4600466 328.025600
   2497   2495   2507     1   109.5600471 388.275200
   2498   2510   2511     1   109.8000471 387.438400
   2498   2510   2512     1   109.8000471 387.438400
   2499   2498   2510     1   109.5600471 388.275200
   2499   2498   2500     1   108.4600466 328.025600
   2500   2498   2510     1   109.5600471 388.275200
   2501   2504   2505     1   109.8000471 387.438400
   2501   2504   2506     1   109.8000471 387.438400
   2502   2501   2504     1   109.5600471 388.275200
   2502   2501   2503     1   108.4600466 328.025600
   2503   2501   2504     1   109.5600471 388.275200
   2504   2513   2514     1   109.5600471 388.275200
   2504   2513   2515     1   109.5600471 388.275200
   2505   2504   2513     1   109.8000471 387.438400
   2505   2504   2506     1   107.5800459 329.699200
   2506   2504   2513     1   109.8000471 387.438400
   2507   2519   2520     1   109.5600471 388.275200
   2507   2519   2521     1   109.5600471 388.275200
   2508   2507   2519     1   109.8000471 387.438400
   2508   2507   2509     1   107.5800459 329.699200
   2509   2507   2519     1   109.8000471 387.438400
   2510   2516   2517     1   109.5600471 388.275200
   2510   2516   2518     1   109.5600471 388.275200
   2511   2510   2516     1   109.8000471 387.438400
   2511   2510   2512     1   107.5800459 329.699200
   2512   2510   2516     1   109.8000471 387.438400
   2514   2513   2522     1   109.7800468 425.094400
   2514   2513   2515     1   108.4600466 328.025600
   2515   2513   2522     1   109.7800468 425.094400
   2517   2516   5236     1   109.7800468 425.094400
   2517   2516   2518     1   108.4600466 328.025600
   2518   2516   5236     1   109.7800468 425.094400
   2520   2519   5267     1   109.7800468 425.094400
   2520   2519   2521     1   108.4600466 328.025600
   2521   2519   5267     1   109.7800468 425.094400
   2523   2524   2525     1   109.8800469 414.216000
   2523   2524   2526     1   109.8800469 414.216000
   2523   2527   2528     1   109.8800469 414.216000
   2523   2527   2529     1   109.8800469 414.216000
   2523   2530   2531     1   109.8800469 414.216000
   2523   2530   2532     1   109.8800469 414.216000
   2524   2536   2537     1   109.8000471 387.438400
   2524   2536   2538     1   109.8000471 387.438400
   2525   2524   2536     1   109.5600471 388.275200
   2525   2524   2526     1   108.4600466 328.025600
   2526   2524   2536     1   109.5600471 388.275200
   2527   2539   2540     1   109.8000471 387.438400
   2527   2539   2541     1   109.8000471 387.438400
   2528   2527   2539     1   109.5600471 388.275200
   2528   2527   2529     1   108.4600466 328.025600
   2529   2527   2539     1   109.5600471 388.275200
   2530   2533   2534     1   109.8000471 387.438400
   2530   2533   2535     1   109.8000471 387.438400
   2531   2530   2533     1   109.5600471 388.275200
   2531   2530   2532     1   108.4600466 328.025600
   2532   2530   2533     1   109.5600471 388.275200
   2533   2542   2543     1   109.5600471 388.275200
   2533   2542   2544     1   109.5600471 388.275200
   2534   2533   2542     1   109.8000471 387.438400
   2534   2533   2535     1   107.5800459 329.699200
   2535   2533   2542     1   109.8000471 387.438400
   2536   2548   2549     1   109.5600471 388.275200
   2536   2548   2550     1   109.5600471 388.275200
   2537   2536   2548     1   109.8000471 387.438400
   2537   2536   2538     1   107.5800459 329.699200
   2538   2536   2548     1   109.8000471 387.438400
   2539   2545   2546     1   109.5600471 388.275200
   2539   2545   2547     1   109.5600471 388.275200
   2540   2539   2545     1   109.8000471 387.438400
   2540   2539   2541     1   107.5800459 329.699200
   2541   2539   2545     1   109.8000471 387.438400
   2543   2542   2551     1   109.7800468 425.094400
   2543   2542   2544     1   108.4600466 328.025600
   2544   2542   2551     1   109.7800468 425.094400
   2546   2545   5298     1   109.7800468 425.094400
   2546   2545   2547     1   108.4600466 328.025600
   2547   2545   5298     1   109.7800468 425.094400
   2549   2548   5329     1   109.7800468 425.094400
   2549   2548   2550     1   108.4600466 328.025600
   2550   2548   5329     1   109.7800468 425.094400
   2552   2553   2554     1   109.8800469 414.216000
   2552   2553   2555     1   109.8800469 414.216000
   2552   2556   2557     1   109.8800469 414.216000
   2552   2556   2558     1   109.8800469 414.216000
   2552   2559   2560     1   109.8800469 414.216000
   2552   2559   2561     1   109.8800469 414.216000
   2553   2565   2566     1   109.8000471 387.438400
   2553   2565   2567     1   109.8000471 387.438400
   2554   2553   2565     1   109.5600471 388.275200
   2554   2553   2555     1   108.4600466 328.025600
   2555   2553   2565     1   109.5600471 388.275200
   2556   2568   2569     1   109.8000471 387.438400
   2556   2568   2570     1   109.8000471 387.438400
   2557   2556   2568     1   109.5600471 388.275200
   2557   2556   2558     1   108.4600466 328.025600
   2558   2556   2568     1   109.5600471 388.275200
   2559   2562   2563     1   109.8000471 387.438400
   2559   2562   2564     1   109.8000471 387.438400
   2560   2559   2562     1   109.5600471 388.275200
   2560   2559   2561     1   108.4600466 328.025600
   2561   2559   2562     1   109.5600471 388.275200
   2562   2571   2572     1   109.5600471 388.275200
   2562   2571   2573     1   109.5600471 388.275200
   2563   2562   2571     1   109.8000471 387.438400
   2563   2562   2564     1   107.5800459 329.699200
   2564   2562   2571     1   109.8000471 387.438400
   2565   2577   2578     1   109.5600471 388.275200
   2565   2577   2579     1   109.5600471 388.275200
   2566   2565   2577     1   109.8000471 387.438400
   2566   2565   2567     1   107.5800459 329.699200
   2567   2565   2577     1   109.8000471 387.438400
   2568   2574   2575     1   109.5600471 388.275200
   2568   2574   2576     1   109.5600471 388.275200
   2569   2568   2574     1   109.8000471 387.438400
   2569   2568   2570     1   107.5800459 329.699200
   2570   2568   2574     1   109.8000471 387.438400
   2572   2571   2580     1   109.7800468 425.094400
   2572   2571   2573     1   108.4600466 328.025600
   2573   2571   2580     1   109.7800468 425.094400
   2575   2574   5360     1   109.7800468 425.094400
   2575   2574   2576     1   108.4600466 328.025600
   2576   2574   5360     1   109.7800468 425.094400
   2578   2577   5391     1   109.7800468 425.094400
   2578   2577   2579     1   108.4600466 328.025600
   2579   2577   5391     1   109.7800468 425.094400
   2581   2582   2583     1   109.8800469 414.216000
   2581   2582   2584     1   109.8800469 414.216000
   2581   2585   2586     1   109.8800469 414.216000
   2581   2585   2587     1   109.8800469 414.216000
   2581   2588   2589     1   109.8800469 414.216000
   2581   2588   2590     1   109.8800469 414.216000
   2582   2594   2595     1   109.8000471 387.438400
   2582   2594   2596     1   109.8000471 387.438400
   2583   2582   2594     1   109.5600471 388.275200
   2583   2582   2584     1   108.4600466 328.025600
   2584   2582   2594     1   109.5600471 388.275200
   2585   2597   2598     1   109.8000471 387.438400
   2585   2597   2599     1   109.8000471 387.438400
   2586   2585   2597     1   109.5600471 388.275200
   2586   2585   2587     1   108.4600466 328.025600
   2587   2585   2597     1   109.5600471 388.275200
   2588   2591   2592     1   109.8000471 387.438400
   2588   2591   2593     1   109.8000471 387.438400
   2589   2588   2591     1   109.5600471 388.275200
   2589   2588   2590     1   108.4600466 328.025600
   2590   2588   2591     1   109.5600471 388.275200
   2591   2600   2601     1   109.5600471 388.275200
   2591   2600   2602     1   109.5600471 388.275200
   2592   2591   2600     1   109.8000471 387.438400
   2592   2591   2593     1   107.5800459 329.699200
   2593   2591   2600     1   109.8000471 387.438400
   2594   2606   2607     1   109.5600471 388.275200
   2594   2606   2608     1   109.5600471 388.275200
   2595   2594   2606     1   109.8000471 387.438400
   2595   2594   2596     1   107.5800459 329.699200
   2596   2594   2606     1   109.8000471 387.438400
   2597   2603   2604     1   109.5600471 388.275200
   2597   2603   2605     1   109.5600471 388.275200
   2598   2597   2603     1   109.8000471 387.438400
   2598   2597   2599     1   107.5800459 329.699200
   2599   2597   2603     1   109.8000471 387.438400
   2601   2600   2609     1   109.7800468 425.094400
   2601   2600   2602     1   108.4600466 328.025600
   2602   2600   2609     1   109.7800468 425.094400
   2604   2603   5422     1   109.7800468 425.094400
   2604   2603   2605     1   108.4600466 328.025600
   2605   2603   5422     1   109.7800468 425.094400
   2607   2606   5453     1   109.7800468 425.094400
   2607   2606   2608     1   108.4600466 328.025600
   2608   2606   5453     1   109.7800468 425.094400
   2610   2611   2612     1   109.8800469 414.216000
   2610   2611   2613     1   109.8800469 414.216000
   2610   2614   2615     1   109.8800469 414.216000
   2610   2614   2616     1   109.8800469 414.216000
   2610   2617   2618     1   109.8800469 414.216000
   2610   2617   2619     1   109.8800469 414.216000
   2611   2623   2624     1   109.8000471 387.438400
   2611   2623   2625     1   109.8000471 387.438400
   2612   2611   2623     1   109.5600471 388.275200
   2612   2611   2613     1   108.4600466 328.025600
   2613   2611   2623     1   109.5600471 388.275200
   2614   2626   2627     1   109.8000471 387.438400
   2614   2626   2628     1   109.8000471 387.438400
   2615   2614   2626     1   109.5600471 388.275200
   2615   2614   2616     1   108.4600466 328.025600
   2616   2614   2626     1   109.5600471 388.275200
   2617   2620   2621     1   109.8000471 387.438400
   2617   2620   2622     1   109.8000471 387.438400
   2618   2617   2620     1   109.5600471 388.275200
   2618   2617   2619     1   108.4600466 328.025600
   2619   2617   2620     1   109.5600471 388.275200
   2620   2629   2630     1   109.5600471 388.275200
   2620   2629   2631     1   109.5600471 388.275200
   2621   2620   2629     1   109.8000471 387.438400
   2621   2620   2622     1   107.5800459 329.699200
   2622   2620   2629     1   109.8000471 387.438400
   2623   2635   2636     1   109.5600471 388.275200
   2623   2635   2637     1   109.5600471 388.275200
   2624   2623   2635     1   109.8000471 387.438400
   2624   2623   2625     1   107.5800459 329.699200
   2625   2623   2635     1   109.8000471 387.438400
   2626   2632   2633     1   109.5600471 388.275200
   2626   2632   2634     1   109.5600471 388.275200
   2627   2626   2632     1   109.8000471 387.438400
   2627   2626   2628     1   107.5800459 329.699200
   2628   2626   2632     1   109.8000471 387.438400
   2630   2629   2638     1   109.7800468 425.094400
   2630   2629   2631     1   108.4600466 328.025600
   2631   2629   2638     1   109.7800468 425.094400
   2633   2632   5484     1   109.7800468 425.094400
   2633   2632   2634     1   108.4600466 328.025600
   2634   2632   5484     1   109.7800468 425.094400
   2636   2635   5515     1   109.7800468 425.094400
   2636   2635   2637     1   108.4600466 328.025600
   2637   2635   5515     1   109.7800468 425.094400
   2639   2640   2641     1   109.8800469 414.216000
   2639   2640   2642     1   109.8800469 414.216000
   2639   2643   2644     1   109.8800469 414.216000
   2639   2643   2645     1   109.8800469 414.216000
   2639   2646   2647     1   109.8800469 414.216000
   2639   2646   2648     1   109.8800469 414.216000
   2640   2652   2653     1   109.8000471 387.438400
   2640   2652   2654     1   109.8000471 387.438400
   2641   2640   2652     1   109.5600471 388.275200
   2641   2640   2642     1   108.4600466 328.025600
   2642   2640   2652     1   109.5600471 388.275200
   2643   2655   2656     1   109.8000471 387.438400
   2643   2655   2657     1   109.8000471 387.438400
   2644   2643   2655     1   109.5600471 388.275200
   2644   2643   2645     1   108.4600466 328.025600
   2645   2643   2655     1   109.5600471 388.275200
   2646   2649   2650     1   109.8000471 387.438400
   2646   2649   2651     1   109.8000471 387.438400
   2647   2646   2649     1   109.5600471 388.275200
   2647   2646   2648     1   108.4600466 328.025600
   2648   2646   2649     1   109.5600471 388.275200
   2649   2658   2659     1   109.5600471 388.275200
   2649   2658   2660     1   109.5600471 388.275200
   2650   2649   2658     1   109.8000471 387.438400
   2650   2649   2651     1   107.5800459 329.699200
   2651   2649   2658     1   109.8000471 387.438400
   2652   2664   2665     1   109.5600471 388.275200
   2652   2664   2666     1   109.5600471 388.275200
   2653   2652   2664     1   109.8000471 387.438400
   2653   2652   2654     1   107.5800459 329.699200
   2654   2652   2664     1   109.8000471 387.438400
   2655   2661   2662     1   109.5600471 388.275200
   2655   2661   2663     1   109.5600471 388.275200
   2656   2655   2661     1   109.8000471 387.438400
   2656   2655   2657     1   107.5800459 329.699200
   2657   2655   2661     1   109.8000471 387.438400
   2659   2658   2667     1   109.7800468 425.094400
   2659   2658   2660     1   108.4600466 328.025600
   2660   2658   2667     1   109.7800468 425.094400
   2662   2661   5546     1   109.7800468 425.094400
   2662   2661   2663     1   108.4600466 328.025600
   2663   2661   5546     1   109.7800468 425.094400
   2665   2664   5577     1   109.7800468 425.094400
   2665   2664   2666     1   108.4600466 328.025600
   2666   2664   5577     1   109.7800468 425.094400
   2668   2669   2670     1   109.8800469 414.216000
   2668   2669   2671     1   109.8800469 414.216000
   2668   2672   2673     1   109.8800469 414.216000
   2668   2672   2674     1   109.8800469 414.216000
   2668   2675   2676     1   109.8800469 414.216000
   2668   2675   2677     1   109.8800469 414.216000
   2669   2681   2682     1   109.8000471 387.438400
   2669   2681   2683     1   109.8000471 387.438400
   2670   2669   2681     1   109.5600471 388.275200
   2670   2669   2671     1   108.4600466 328.025600
   2671   2669   2681     1   109.5600471 388.275200
   2672   2684   2685     1   109.8000471 387.438400
   2672   2684   2686     1   109.8000471 387.438400
   2673   2672   2684     1   109.5600471 388.275200
   2673   2672   2674     1   108.4600466 328.025600
   2674   2672   2684     1   109.5600471 388.275200
   2675   2678   2679     1   109.8000471 387.438400
   2675   2678   2680     1   109.8000471 387.438400
   2676   2675   2678     1   109.5600471 388.275200
   2676   2675   2677     1   108.4600466 328.025600
   2677   2675   2678     1   109.5600471 388.275200
   2678   2687   2688     1   109.5600471 388.275200
   2678   2687   2689     1   109.5600471 388.275200
   2679   2678   2687     1   109.8000471 387.438400
   2679   2678   2680     1   107.5800459 329.699200
   2680   2678   2687     1   109.8000471 387.438400
   2681   2693   2694     1   109.5600471 388.275200
   2681   2693   2695     1   109.5600471 388.275200
   2682   2681   2693     1   109.8000471 387.438400
   2682   2681   2683     1   107.5800459 329.699200
   2683   2681   2693     1   109.8000471 387.438400
   2684   2690   2691     1   109.5600471 388.275200
   2684   2690   2692     1   109.5600471 388.275200
   2685   2684   2690     1   109.8000471 387.438400
   2685   2684   2686     1   107.5800459 329.699200
   2686   2684   2690     1   109.8000471 387.438400
   2688   2687   2696     1   109.7800468 425.094400
   2688   2687   2689     1   108.4600466 328.025600
   2689   2687   2696     1   109.7800468 425.094400
   2691   2690   5608     1   109.7800468 425.094400
   2691   2690   2692     1   108.4600466 328.025600
   2692   2690   5608     1   109.7800468 425.094400
   2694   2693   5639     1   109.7800468 425.094400
   2694   2693   2695     1   108.4600466 328.025600
   2695   2693   5639     1   109.7800468 425.094400
   2697   2698   2699     1   109.8800469 414.216000
   2697   2698   2700     1   109.8800469 414.216000
   2697   2701   2702     1   109.8800469 414.216000
   2697   2701   2703     1   109.8800469 414.216000
   2697   2704   2705     1   109.8800469 414.216000
   2697   2704   2706     1   109.8800469 414.216000
   2698   2710   2711     1   109.8000471 387.438400
   2698   2710   2712     1   109.8000471 387.438400
   2699   2698   2710     1   109.5600471 388.275200
   2699   2698   2700     1   108.4600466 328.025600
   2700   2698   2710     1   109.5600471 388.275200
   2701   2713   2714     1   109.8000471 387.438400
   2701   2713   2715     1   109.8000471 387.438400
   2702   2701   2713     1   109.5600471 388.275200
   2702   2701   2703     1   108.4600466 328.025600
   2703   2701   2713     1   109.5600471 388.275200
   2704   2707   2708     1   109.8000471 387.438400
   2704   2707   2709     1   109.8000471 387.438400
   2705   2704   2707     1   109.5600471 388.275200
   2705   2704   2706     1   108.4600466 328.025600
   2706   2704   2707     1   109.5600471 388.275200
   2707   2716   2717     1   109.5600471 388.275200
   2707   2716   2718     1   109.5600471 388.275200
   2708   2707   2716     1   109.8000471 387.438400
   2708   2707   2709     1   107.5800459 329.699200
   2709   2707   2716     1   109.8000471 387.438400
   2710   2722   2723     1   109.5600471 388.275200
   2710   2722   2724     1   109.5600471 388.275200
   2711   2710   2722     1   109.8000471 387.438400
   2711   2710   2712     1   107.5800459 329.699200
   2712   2710   2722     1   109.8000471 387.438400
   2713   2719   2720     1   109.5600471 388.275200
   2713   2719   2721     1   109.5600471 388.275200
   2714   2713   2719     1   109.8000471 387.438400
   2714   2713   2715     1   107.5800459 329.699200
   2715   2713   2719     1   109.8000471 387.438400
   2717   2716   2725     1   109.7800468 425.094400
   2717   2716   2718     1   108.4600466 328.025600
   2718   2716   2725     1   109.7800468 425.094400
   2720   2719   5670     1   109.7800468 425.094400
   2720   2719   2721     1   108.4600466 328.025600
   2721   2719   5670     1   109.7800468 425.094400
   2723   2722   5701     1   109.7800468 425.094400
   2723   2722   2724     1   108.4600466 328.025600
   2724   2722   5701     1   109.7800468 425.094400
   2726   2729   2730     1   109.8000471 387.438400
   2726   2729   2731     1   109.8000471 387.438400
   2727   2726   2729     1   109.5600471 388.275200
   2727   2726   2756     1   109.7800468 425.094400
   2727   2726   2728     1   108.4600466 328.025600
   2728   2726   2729     1   109.5600471 388.275200
   2728   2726   2756     1   109.7800468 425.094400
   2729   2732   2733     1   109.5600471 388.275200
   2729   2732   2734     1   109.5600471 388.275200
   2730   2729   2732     1   109.8000471 387.438400
   2730   2729   2731     1   107.5800459 329.699200
   2731   2729   2732     1   109.8000471 387.438400
   2733   2732   2735     1   109.8800469 414.216000
   2733   2732   2734     1   108.4600466 328.025600
   2734   2732   2735     1   109.8800469 414.216000
   2735   2736   2737     1   109.8800469 414.216000
   2735   2736   2738     1   109.8800469 414.216000
   2735   2746   2747     1   109.8800469 414.216000
   2735   2746   2748     1   109.8800469 414.216000
   2736   2739   2740     1   109.8000471 387.438400
   2736   2739   2741     1   109.8000471 387.438400
   2737   2736   2739     1   109.5600471 388.275200
   2737   2736   2738     1   108.4600466 328.025600
   2738   2736   2739     1   109.5600471 388.275200
   2740   2739   2742     1   108.7700466 392.459200
   2740   2739   2741     1   107.5800459 329.699200
   2741   2739   2742     1   108.7700466 392.459200
   2742   2744   2745     1   106.5500460 417.563200
   2746   2749   2750     1   109.8000471 387.438400
   2746   2749   2751     1   109.8000471 387.438400
   2747   2746   2749     1   109.5600471 388.275200
   2747   2746   2748     1   108.4600466 328.025600
   2748   2746   2749     1   109.5600471 388.275200
   2750   2749   2752     1   108.7700466 392.459200
   2750   2749   2751     1   107.5800459 329.699200
   2751   2749   2752     1   108.7700466 392.459200
   2752   2754   2755     1   106.5500460 417.563200
   2757   2760   2761     1   109.8000471 387.438400
   2757   2760   2762     1   109.8000471 387.438400
   2758   2757   2760     1   109.5600471 388.275200
   2758   2757   2787     1   109.7800468 425.094400
   2758   2757   2759     1   108.4600466 328.025600
   2759   2757   2760     1   109.5600471 388.275200
   2759   2757   2787     1   109.7800468 425.094400
   2760   2763   2764     1   109.5600471 388.275200
   2760   2763   2765     1   109.5600471 388.275200
   2761   2760   2763     1   109.8000471 387.438400
   2761   2760   2762     1   107.5800459 329.699200
   2762   2760   2763     1   109.8000471 387.438400
   2764   2763   2766     1   109.8800469 414.216000
   2764   2763   2765     1   108.4600466 328.025600
   2765   2763   2766     1   109.8800469 414.216000
   2766   2767   2768     1   109.8800469 414.216000
   2766   2767   2769     1   109.8800469 414.216000
   2766   2777   2778     1   109.8800469 414.216000
   2766   2777   2779     1   109.8800469 414.216000
   2767   2770   2771     1   109.8000471 387.438400
   2767   2770   2772     1   109.8000471 387.438400
   2768   2767   2770     1   109.5600471 388.275200
   2768   2767   2769     1   108.4600466 328.025600
   2769   2767   2770     1   109.5600471 388.275200
   2771   2770   2773     1   108.7700466 392.459200
   2771   2770   2772     1   107.5800459 329.699200
   2772   2770   2773     1   108.7700466 392.459200
   2773   2775   2776     1   106.5500460 417.563200
   2777   2780   2781     1   109.8000471 387.438400
   2777   2780   2782     1   109.8000471 387.438400
   2778   2777   2780     1   109.5600471 388.275200
   2778   2777   2779     1   108.4600466 328.025600
   2779   2777   2780     1   109.5600471 388.275200
   2781   2780   2783     1   108.7700466 392.459200
   2781   2780   2782     1   107.5800459 329.699200
   2782   2780   2783     1   108.7700466 392.459200
   2783   2785   2786     1   106.5500460 417.563200
   2788   2791   2792     1   109.8000471 387.438400
   2788   2791   2793     1   109.8000471 387.438400
   2789   2788   2791     1   109.5600471 388.275200
   2789   2788   2818     1   109.7800468 425.094400
   2789   2788   2790     1   108.4600466 328.025600
   2790   2788   2791     1   109.5600471 388.275200
   2790   2788   2818     1   109.7800468 425.094400
   2791   2794   2795     1   109.5600471 388.275200
   2791   2794   2796     1   109.5600471 388.275200
   2792   2791   2794     1   109.8000471 387.438400
   2792   2791   2793     1   107.5800459 329.699200
   2793   2791   2794     1   109.8000471 387.438400
   2795   2794   2797     1   109.8800469 414.216000
   2795   2794   2796     1   108.4600466 328.025600
   2796   2794   2797     1   109.8800469 414.216000
   2797   2798   2799     1   109.8800469 414.216000
   2797   2798   2800     1   109.8800469 414.216000
   2797   2808   2809     1   109.8800469 414.216000
   2797   2808   2810     1   109.8800469 414.216000
   2798   2801   2802     1   109.8000471 387.438400
   2798   2801   2803     1   109.8000471 387.438400
   2799   2798   2801     1   109.5600471 388.275200
   2799   2798   2800     1   108.4600466 328.025600
   2800   2798   2801     1   109.5600471 388.275200
   2802   2801   2804     1   108.7700466 392.459200
   2802   2801   2803     1   107.5800459 329.699200
   2803   2801   2804     1   108.7700466 392.459200
   2804   2806   2807     1   106.5500460 417.563200
   2808   2811   2812     1   109.8000471 387.438400
   2808   2811   2813     1   109.8000471 387.438400
   2809   2808   2811     1   109.5600471 388.275200
   2809   2808   2810     1   108.4600466 328.025600
   2810   2808   2811     1   109.5600471 388.275200
   2812   2811   2814     1   108.7700466 392.459200
   2812   2811   2813     1   107.5800459 329.699200
   2813   2811   2814     1   108.7700466 392.459200
   2814   2816   2817     1   106.5500460 417.563200
   2819   2822   2823     1   109.8000471 387.438400
   2819   2822   2824     1   109.8000471 387.438400
   2820   2819   2822     1   109.5600471 388.275200
   2820   2819   2849     1   109.7800468 425.094400
   2820   2819   2821     1   108.4600466 328.025600
   2821   2819   2822     1   109.5600471 388.275200
   2821   2819   2849     1   109.7800468 425.094400
   2822   2825   2826     1   109.5600471 388.275200
   2822   2825   2827     1   109.5600471 388.275200
   2823   2822   2825     1   109.8000471 387.438400
   2823   2822   2824     1   107.5800459 329.699200
   2824   2822   2825     1   109.8000471 387.438400
   2826   2825   2828     1   109.8800469 414.216000
   2826   2825   2827     1   108.4600466 328.025600
   2827   2825   2828     1   109.8800469 414.216000
   2828   2829   2830     1   109.8800469 414.216000
   2828   2829   2831     1   109.8800469 414.216000
   2828   2839   2840     1   109.8800469 414.216000
   2828   2839   2841     1   109.8800469 414.216000
   2829   2832   2833     1   109.8000471 387.438400
   2829   2832   2834     1   109.8000471 387.438400
   2830   2829   2832     1   109.5600471 388.275200
   2830   2829   2831     1   108.4600466 328.025600
   2831   2829   2832     1   109.5600471 388.275200
   2833   2832   2835     1   108.7700466 392.459200
   2833   2832   2834     1   107.5800459 329.699200
   2834   2832   2835     1   108.7700466 392.459200
   2835   2837   2838     1   106.5500460 417.563200
   2839   2842   2843     1   109.8000471 387.438400
   2839   2842   2844     1   109.8000471 387.438400
   2840   2839   2842     1   109.5600471 388.275200
   2840   2839   2841     1   108.4600466 328.025600
   2841   2839   2842     1   109.5600471 388.275200
   2843   2842   2845     1   108.7700466 392.459200
   2843   2842   2844     1   107.5800459 329.699200
   2844   2842   2845     1   108.7700466 392.459200
   2845   2847   2848     1   106.5500460 417.563200
   2850   2853   2854     1   109.8000471 387.438400
   2850   2853   2855     1   109.8000471 387.438400
   2851   2850   2853     1   109.5600471 388.275200
   2851   2850   2880     1   109.7800468 425.094400
   2851   2850   2852     1   108.4600466 328.025600
   2852   2850   2853     1   109.5600471 388.275200
   2852   2850   2880     1   109.7800468 425.094400
   2853   2856   2857     1   109.5600471 388.275200
   2853   2856   2858     1   109.5600471 388.275200
   2854   2853   2856     1   109.8000471 387.438400
   2854   2853   2855     1   107.5800459 329.699200
   2855   2853   2856     1   109.8000471 387.438400
   2857   2856   2859     1   109.8800469 414.216000
   2857   2856   2858     1   108.4600466 328.025600
   2858   2856   2859     1   109.8800469 414.216000
   2859   2860   2861     1   109.8800469 414.216000
   2859   2860   2862     1   109.8800469 414.216000
   2859   2870   2871     1   109.8800469 414.216000
   2859   2870   2872     1   109.8800469 414.216000
   2860   2863   2864     1   109.8000471 387.438400
   2860   2863   2865     1   109.8000471 387.438400
   2861   2860   2863     1   109.5600471 388.275200
   2861   2860   2862     1   108.4600466 328.025600
   2862   2860   2863     1   109.5600471 388.275200
   2864   2863   2866     1   108.7700466 392.459200
   2864   2863   2865     1   107.5800459 329.699200
   2865   2863   2866     1   108.7700466 392.459200
   2866   2868   2869     1   106.5500460 417.563200
   2870   2873   2874     1   109.8000471 387.438400
   2870   2873   2875     1   109.8000471 387.438400
   2871   2870   2873     1   109.5600471 388.275200
   2871   2870   2872     1   108.4600466 328.025600
   2872   2870   2873     1   109.5600471 388.275200
   2874   2873   2876     1   108.7700466 392.459200
   2874   2873   2875     1   107.5800459 329.699200
   2875   2873   2876     1   108.7700466 392.459200
   2876   2878   2879     1   106.5500460 417.563200
   2881   2884   2885     1   109.8000471 387.438400
   2881   2884   2886     1   109.8000471 387.438400
   2882   2881   2884     1   109.5600471 388.275200
   2882   2881   2911     1   109.7800468 425.094400
   2882   2881   2883     1   108.4600466 328.025600
   2883   2881   2884     1   109.5600471 388.275200
   2883   2881   2911     1   109.7800468 425.094400
   2884   2887   2888     1   109.5600471 388.275200
   2884   2887   2889     1   109.5600471 388.275200
   2885   2884   2887     1   109.8000471 387.438400
   2885   2884   2886     1   107.5800459 329.699200
   2886   2884   2887     1   109.8000471 387.438400
   2888   2887   2890     1   109.8800469 414.216000
   2888   2887   2889     1   108.4600466 328.025600
   2889   2887   2890     1   109.8800469 414.216000
   2890   2891   2892     1   109.8800469 414.216000
   2890   2891   2893     1   109.8800469 414.216000
   2890   2901   2902     1   109.8800469 414.216000
   2890   2901   2903     1   109.8800469 414.216000
   2891   2894   2895     1   109.8000471 387.438400
   2891   2894   2896     1   109.8000471 387.438400
   2892   2891   2894     1   109.5600471 388.275200
   2892   2891   2893     1   108.4600466 328.025600
   2893   2891   2894     1   109.5600471 388.275200
   2895   2894   2897     1   108.7700466 392.459200
   2895   2894   2896     1   107.5800459 329.699200
   2896   2894   2897     1   108.7700466 392.459200
   2897   2899   2900     1   106.5500460 417.563200
   2901   2904   2905     1   109.8000471 387.438400
   2901   2904   2906     1   109.8000471 387.438400
   2902   2901   2904     1   109.5600471 388.275200
   2902   2901   2903     1   108.4600466 328.025600
   2903   2901   2904     1   109.5600471 388.275200
   2905   2904   2907     1   108.7700466 392.459200
   2905   2904   2906     1   107.5800459 329.699200
   2906   2904   2907     1   108.7700466 392.459200
   2907   2909   2910     1   106.5500460 417.563200
   2912   2915   2916     1   109.8000471 387.438400
   2912   2915   2917     1   109.8000471 387.438400
   2913   2912   2915     1   109.5600471 388.275200
   2913   2912   2942     1   109.7800468 425.094400
   2913   2912   2914     1   108.4600466 328.025600
   2914   2912   2915     1   109.5600471 388.275200
   2914   2912   2942     1   109.7800468 425.094400
   2915   2918   2919     1   109.5600471 388.275200
   2915   2918   2920     1   109.5600471 388.275200
   2916   2915   2918     1   109.8000471 387.438400
   2916   2915   2917     1   107.5800459 329.699200
   2917   2915   2918     1   109.8000471 387.438400
   2919   2918   2921     1   109.8800469 414.216000
   2919   2918   2920     1   108.4600466 328.025600
   2920   2918   2921     1   109.8800469 414.216000
   2921   2922   2923     1   109.8800469 414.216000
   2921   2922   2924     1   109.8800469 414.216000
   2921   2932   2933     1   109.8800469 414.216000
   2921   2932   2934     1   109.8800469 414.216000
   2922   2925   2926     1   109.8000471 387.438400
   2922   2925   2927     1   109.8000471 387.438400
   2923   2922   2925     1   109.5600471 388.275200
   2923   2922   2924     1   108.4600466 328.025600
   2924   2922   2925     1   109.5600471 388.275200
   2926   2925   2928     1   108.7700466 392.459200
   2926   2925   2927     1   107.5800459 329.699200
   2927   2925   2928     1   108.7700466 392.459200
   2928   2930   2931     1   106.5500460 417.563200
   2932   2935   2936     1   109.8000471 387.438400
   2932   2935   2937     1   109.8000471 387.438400
   2933   2932   2935     1   109.5600471 388.275200
   2933   2932   2934     1   108.4600466 328.025600
   2934   2932   2935     1   109.5600471 388.275200
   2936   2935   2938     1   108.7700466 392.459200
   2936   2935   2937     1   107.5800459 329.699200
   2937   2935   2938     1   108.7700466 392.459200
   2938   2940   2941     1   106.5500460 417.563200
   2943   2946   2947     1   109.8000471 387.438400
   2943   2946   2948     1   109.8000471 387.438400
   2944   2943   2946     1   109.5600471 388.275200
   2944   2943   2973     1   109.7800468 425.094400
   2944   2943   2945     1   108.4600466 328.025600
   2945   2943   2946     1   109.5600471 388.275200
   2945   2943   2973     1   109.7800468 425.094400
   2946   2949   2950     1   109.5600471 388.275200
   2946   2949   2951     1   109.5600471 388.275200
   2947   2946   2949     1   109.8000471 387.438400
   2947   2946   2948     1   107.5800459 329.699200
   2948   2946   2949     1   109.8000471 387.438400
   2950   2949   2952     1   109.8800469 414.216000
   2950   2949   2951     1   108.4600466 328.025600
   2951   2949   2952     1   109.8800469 414.216000
   2952   2953   2954     1   109.8800469 414.216000
   2952   2953   2955     1   109.8800469 414.216000
   2952   2963   2964     1   109.8800469 414.216000
   2952   2963   2965     1   109.8800469 414.216000
   2953   2956   2957     1   109.8000471 387.438400
   2953   2956   2958     1   109.8000471 387.438400
   2954   2953   2956     1   109.5600471 388.275200
   2954   2953   2955     1   108.4600466 328.025600
   2955   2953   2956     1   109.5600471 388.275200
   2957   2956   2959     1   108.7700466 392.459200
   2957   2956   2958     1   107.5800459 329.699200
   2958   2956   2959     1   108.7700466 392.459200
   2959   2961   2962     1   106.5500460 417.563200
   2963   2966   2967     1   109.8000471 387.438400
   2963   2966   2968     1   109.8000471 387.438400
   2964   2963   2966     1   109.5600471 388.275200
   2964   2963   2965     1   108.4600466 328.025600
   2965   2963   2966     1   109.5600471 388.275200
   2967   2966   2969     1   108.7700466 392.459200
   2967   2966   2968     1   107.5800459 329.699200
   2968   2966   2969     1   108.7700466 392.459200
   2969   2971   2972     1   106.5500460 417.563200
   2974   2977   2978     1   109.8000471 387.438400
   2974   2977   2979     1   109.8000471 387.438400
   2975   2974   2977     1   109.5600471 388.275200
   2975   2974   3004     1   109.7800468 425.094400
   2975   2974   2976     1   108.4600466 328.025600
   2976   2974   2977     1   109.5600471 388.275200
   2976   2974   3004     1   109.7800468 425.094400
   2977   2980   2981     1   109.5600471 388.275200
   2977   2980   2982     1   109.5600471 388.275200
   2978   2977   2980     1   109.8000471 387.438400
   2978   2977   2979     1   107.5800459 329.699200
   2979   2977   2980     1   109.8000471 387.438400
   2981   2980   2983     1   109.8800469 414.216000
   2981   2980   2982     1   108.4600466 328.025600
   2982   2980   2983     1   109.8800469 414.216000
   2983   2984   2985     1   109.8800469 414.216000
   2983   2984   2986     1   109.8800469 414.216000
   2983   2994   2995     1   109.8800469 414.216000
   2983   2994   2996     1   109.8800469 414.216000
   2984   2987   2988     1   109.8000471 387.438400
   2984   2987   2989     1   109.8000471 387.438400
   2985   2984   2987     1   109.5600471 388.275200
   2985   2984   2986     1   108.4600466 328.025600
   2986   2984   2987     1   109.5600471 388.275200
   2988   2987   2990     1   108.7700466 392.459200
   2988   2987   2989     1   107.5800459 329.699200
   2989   2987   2990     1   108.7700466 392.459200
   2990   2992   2993     1   106.5500460 417.563200
   2994   2997   2998     1   109.8000471 387.438400
   2994   2997   2999     1   109.8000471 387.438400
   2995   2994   2997     1   109.5600471 388.275200
   2995   2994   2996     1   108.4600466 328.025600
   2996   2994   2997     1   109.5600471 388.275200
   2998   2997   3000     1   108.7700466 392.459200
   2998   2997   2999     1   107.5800459 329.699200
   2999   2997   3000     1   108.7700466 392.459200
   3000   3002   3003     1   106.5500460 417.563200
   3005   3008   3009     1   109.8000471 387.438400
   3005   3008   3010     1   109.8000471 387.438400
   3006   3005   3008     1   109.5600471 388.275200
   3006   3005   3035     1   109.7800468 425.094400
   3006   3005   3007     1   108.4600466 328.025600
   3007   3005   3008     1   109.5600471 388.275200
   3007   3005   3035     1   109.7800468 425.094400
   3008   3011   3012     1   109.5600471 388.275200
   3008   3011   3013     1   109.5600471 388.275200
   3009   3008   3011     1   109.8000471 387.438400
   3009   3008   3010     1   107.5800459 329.699200
   3010   3008   3011     1   109.8000471 387.438400
   3012   3011   3014     1   109.8800469 414.216000
   3012   3011   3013     1   108.4600466 328.025600
   3013   3011   3014     1   109.8800469 414.216000
   3014   3015   3016     1   109.8800469 414.216000
   3014   3015   3017     1   109.8800469 414.216000
   3014   3025   3026     1   109.8800469 414.216000
   3014   3025   3027     1   109.8800469 414.216000
   3015   3018   3019     1   109.8000471 387.438400
   3015   3018   3020     1   109.8000471 387.438400
   3016   3015   3018     1   109.5600471 388.275200
   3016   3015   3017     1   108.4600466 328.025600
   3017   3015   3018     1   109.5600471 388.275200
   3019   3018   3021     1   108.7700466 392.459200
   3019   3018   3020     1   107.5800459 329.699200
   3020   3018   3021     1   108.7700466 392.459200
   3021   3023   3024     1   106.5500460 417.563200
   3025   3028   3029     1   109.8000471 387.438400
   3025   3028   3030     1   109.8000471 387.438400
   3026   3025   3028     1   109.5600471 388.275200
   3026   3025   3027     1   108.4600466 328.025600
   3027   3025   3028     1   109.5600471 388.275200
   3029   3028   3031     1   108.7700466 392.459200
   3029   3028   3030     1   107.5800459 329.699200
   3030   3028   3031     1   108.7700466 392.459200
   3031   3033   3034     1   106.5500460 417.563200
   3036   3039   3040     1   109.8000471 387.438400
   3036   3039   3041     1   109.8000471 387.438400
   3037   3036   3039     1   109.5600471 388.275200
   3037   3036   3066     1   109.7800468 425.094400
   3037   3036   3038     1   108.4600466 328.025600
   3038   3036   3039     1   109.5600471 388.275200
   3038   3036   3066     1   109.7800468 425.094400
   3039   3042   3043     1   109.5600471 388.275200
   3039   3042   3044     1   109.5600471 388.275200
   3040   3039   3042     1   109.8000471 387.438400
   3040   3039   3041     1   107.5800459 329.699200
   3041   3039   3042     1   109.8000471 387.438400
   3043   3042   3045     1   109.8800469 414.216000
   3043   3042   3044     1   108.4600466 328.025600
   3044   3042   3045     1   109.8800469 414.216000
   3045   3046   3047     1   109.8800469 414.216000
   3045   3046   3048     1   109.8800469 414.216000
   3045   3056   3057     1   109.8800469 414.216000
   3045   3056   3058     1   109.8800469 414.216000
   3046   3049   3050     1   109.8000471 387.438400
   3046   3049   3051     1   109.8000471 387.438400
   3047   3046   3049     1   109.5600471 388.275200
   3047   3046   3048     1   108.4600466 328.025600
   3048   3046   3049     1   109.5600471 388.275200
   3050   3049   3052     1   108.7700466 392.459200
   3050   3049   3051     1   107.5800459 329.699200
   3051   3049   3052     1   108.7700466 392.459200
   3052   3054   3055     1   106.5500460 417.563200
   3056   3059   3060     1   109.8000471 387.438400
   3056   3059   3061     1   109.8000471 387.438400
   3057   3056   3059     1   109.5600471 388.275200
   3057   3056   3058     1   108.4600466 328.025600
   3058   3056   3059     1   109.5600471 388.275200
   3060   3059   3062     1   108.7700466 392.459200
   3060   3059   3061     1   107.5800459 329.699200
   3061   3059   3062     1   108.7700466 392.459200
   3062   3064   3065     1   106.5500460 417.563200
   3067   3070   3071     1   109.8000471 387.438400
   3067   3070   3072     1   109.8000471 387.438400
   3068   3067   3070     1   109.5600471 388.275200
   3068   3067   3097     1   109.7800468 425.094400
   3068   3067   3069     1   108.4600466 328.025600
   3069   3067   3070     1   109.5600471 388.275200
   3069   3067   3097     1   109.7800468 425.094400
   3070   3073   3074     1   109.5600471 388.275200
   3070   3073   3075     1   109.5600471 388.275200
   3071   3070   3073     1   109.8000471 387.438400
   3071   3070   3072     1   107.5800459 329.699200
   3072   3070   3073     1   109.8000471 387.438400
   3074   3073   3076     1   109.8800469 414.216000
   3074   3073   3075     1   108.4600466 328.025600
   3075   3073   3076     1   109.8800469 414.216000
   3076   3077   3078     1   109.8800469 414.216000
   3076   3077   3079     1   109.8800469 414.216000
   3076   3087   3088     1   109.8800469 414.216000
   3076   3087   3089     1   109.8800469 414.216000
   3077   3080   3081     1   109.8000471 387.438400
   3077   3080   3082     1   109.8000471 387.438400
   3078   3077   3080     1   109.5600471 388.275200
   3078   3077   3079     1   108.4600466 328.025600
   3079   3077   3080     1   109.5600471 388.275200
   3081   3080   3083     1   108.7700466 392.459200
   3081   3080   3082     1   107.5800459 329.699200
   3082   3080   3083     1   108.7700466 392.459200
   3083   3085   3086     1   106.5500460 417.563200
   3087   3090   3091     1   109.8000471 387.438400
   3087   3090   3092     1   109.8000471 387.438400
   3088   3087   3090     1   109.5600471 388.275200
   3088   3087   3089     1   108.4600466 328.025600
   3089   3087   3090     1   109.5600471 388.275200
   3091   3090   3093     1   108.7700466 392.459200
   3091   3090   3092     1   107.5800459 329.699200
   3092   3090   3093     1   108.7700466 392.459200
   3093   3095   3096     1   106.5500460 417.563200
   3098   3101   3102     1   109.8000471 387.438400
   3098   3101   3103     1   109.8000471 387.438400
   3099   3098   3101     1   109.5600471 388.275200
   3099   3098   3128     1   109.7800468 425.094400
   3099   3098   3100     1   108.4600466 328.025600
   3100   3098   3101     1   109.5600471 388.275200
   3100   3098   3128     1   109.7800468 425.094400
   3101   3104   3105     1   109.5600471 388.275200
   3101   3104   3106     1   109.5600471 388.275200
   3102   3101   3104     1   109.8000471 387.438400
   3102   3101   3103     1   107.5800459 329.699200
   3103   3101   3104     1   109.8000471 387.438400
   3105   3104   3107     1   109.8800469 414.216000
   3105   3104   3106     1   108.4600466 328.025600
   3106   3104   3107     1   109.8800469 414.216000
   3107   3108   3109     1   109.8800469 414.216000
   3107   3108   3110     1   109.8800469 414.216000
   3107   3118   3119     1   109.8800469 414.216000
   3107   3118   3120     1   109.8800469 414.216000
   3108   3111   3112     1   109.8000471 387.438400
   3108   3111   3113     1   109.8000471 387.438400
   3109   3108   3111     1   109.5600471 388.275200
   3109   3108   3110     1   108.4600466 328.025600
   3110   3108   3111     1   109.5600471 388.275200
   3112   3111   3114     1   108.7700466 392.459200
   3112   3111   3113     1   107.5800459 329.699200
   3113   3111   3114     1   108.7700466 392.459200
   3114   3116   3117     1   106.5500460 417.563200
   3118   3121   3122     1   109.8000471 387.438400
   3118   3121   3123     1   109.8000471 387.438400
   3119   3118   3121     1   109.5600471 388.275200
   3119   3118   3120     1   108.4600466 328.025600
   3120   3118   3121     1   109.5600471 388.275200
   3122   3121   3124     1   108.7700466 392.459200
   3122   3121   3123     1   107.5800459 329.699200
   3123   3121   3124     1   108.7700466 392.459200
   3124   3126   3127     1   106.5500460 417.563200
   3129   3132   3133     1   109.8000471 387.438400
   3129   3132   3134     1   109.8000471 387.438400
   3130   3129   3132     1   109.5600471 388.275200
   3130   3129   3159     1   109.7800468 425.094400
   3130   3129   3131     1   108.4600466 328.025600
   3131   3129   3132     1   109.5600471 388.275200
   3131   3129   3159     1   109.7800468 425.094400
   3132   3135   3136     1   109.5600471 388.275200
   3132   3135   3137     1   109.5600471 388.275200
   3133   3132   3135     1   109.8000471 387.438400
   3133   3132   3134     1   107.5800459 329.699200
   3134   3132   3135     1   109.8000471 387.438400
   3136   3135   3138     1   109.8800469 414.216000
   3136   3135   3137     1   108.4600466 328.025600
   3137   3135   3138     1   109.8800469 414.216000
   3138   3139   3140     1   109.8800469 414.216000
   3138   3139   3141     1   109.8800469 414.216000
   3138   3149   3150     1   109.8800469 414.216000
   3138   3149   3151     1   109.8800469 414.216000
   3139   3142   3143     1   109.8000471 387.438400
   3139   3142   3144     1   109.8000471 387.438400
   3140   3139   3142     1   109.5600471 388.275200
   3140   3139   3141     1   108.4600466 328.025600
   3141   3139   3142     1   109.5600471 388.275200
   3143   3142   3145     1   108.7700466 392.459200
   3143   3142   3144     1   107.5800459 329.699200
   3144   3142   3145     1   108.7700466 392.459200
   3145   3147   3148     1   106.5500460 417.563200
   3149   3152   3153     1   109.8000471 387.438400
   3149   3152   3154     1   109.8000471 387.438400
   3150   3149   3152     1   109.5600471 388.275200
   3150   3149   3151     1   108.4600466 328.025600
   3151   3149   3152     1   109.5600471 388.275200
   3153   3152   3155     1   108.7700466 392.459200
   3153   3152   3154     1   107.5800459 329.699200
   3154   3152   3155     1   108.7700466 392.459200
   3155   3157   3158     1   106.5500460 417.563200
   3160   3163   3164     1   109.8000471 387.438400
   3160   3163   3165     1   109.8000471 387.438400
   3161   3160   3163     1   109.5600471 388.275200
   3161   3160   3190     1   109.7800468 425.094400
   3161   3160   3162     1   108.4600466 328.025600
   3162   3160   3163     1   109.5600471 388.275200
   3162   3160   3190     1   109.7800468 425.094400
   3163   3166   3167     1   109.5600471 388.275200
   3163   3166   3168     1   109.5600471 388.275200
   3164   3163   3166     1   109.8000471 387.438400
   3164   3163   3165     1   107.5800459 329.699200
   3165   3163   3166     1   109.8000471 387.438400
   3167   3166   3169     1   109.8800469 414.216000
   3167   3166   3168     1   108.4600466 328.025600
   3168   3166   3169     1   109.8800469 414.216000
   3169   3170   3171     1   109.8800469 414.216000
   3169   3170   3172     1   109.8800469 414.216000
   3169   3180   3181     1   109.8800469 414.216000
   3169   3180   3182     1   109.8800469 414.216000
   3170   3173   3174     1   109.8000471 387.438400
   3170   3173   3175     1   109.8000471 387.438400
   3171   3170   3173     1   109.5600471 388.275200
   3171   3170   3172     1   108.4600466 328.025600
   3172   3170   3173     1   109.5600471 388.275200
   3174   3173   3176     1   108.7700466 392.459200
   3174   3173   3175     1   107.5800459 329.699200
   3175   3173   3176     1   108.7700466 392.459200
   3176   3178   3179     1   106.5500460 417.563200
   3180   3183   3184     1   109.8000471 387.438400
   3180   3183   3185     1   109.8000471 387.438400
   3181   3180   3183     1   109.5600471 388.275200
   3181   3180   3182     1   108.4600466 328.025600
   3182   3180   3183     1   109.5600471 388.275200
   3184   3183   3186     1   108.7700466 392.459200
   3184   3183   3185     1   107.5800459 329.699200
   3185   3183   3186     1   108.7700466 392.459200
   3186   3188   3189     1   106.5500460 417.563200
   3191   3194   3195     1   109.8000471 387.438400
   3191   3194   3196     1   109.8000471 387.438400
   3192   3191   3194     1   109.5600471 388.275200
   3192   3191   3221     1   109.7800468 425.094400
   3192   3191   3193     1   108.4600466 328.025600
   3193   3191   3194     1   109.5600471 388.275200
   3193   3191   3221     1   109.7800468 425.094400
   3194   3197   3198     1   109.5600471 388.275200
   3194   3197   3199     1   109.5600471 388.275200
   3195   3194   3197     1   109.8000471 387.438400
   3195   3194   3196     1   107.5800459 329.699200
   3196   3194   3197     1   109.8000471 387.438400
   3198   3197   3200     1   109.8800469 414.216000
   3198   3197   3199     1   108.4600466 328.025600
   3199   3197   3200     1   109.8800469 414.216000
   3200   3201   3202     1   109.8800469 414.216000
   3200   3201   3203     1   109.8800469 414.216000
   3200   3211   3212     1   109.8800469 414.216000
   3200   3211   3213     1   109.8800469 414.216000
   3201   3204   3205     1   109.8000471 387.438400
   3201   3204   3206     1   109.8000471 387.438400
   3202   3201   3204     1   109.5600471 388.275200
   3202   3201   3203     1   108.4600466 328.025600
   3203   3201   3204     1   109.5600471 388.275200
   3205   3204   3207     1   108.7700466 392.459200
   3205   3204   3206     1   107.5800459 329.699200
   3206   3204   3207     1   108.7700466 392.459200
   3207   3209   3210     1   106.5500460 417.563200
   3211   3214   3215     1   109.8000471 387.438400
   3211   3214   3216     1   109.8000471 387.438400
   3212   3211   3214     1   109.5600471 388.275200
   3212   3211   3213     1   108.4600466 328.025600
   3213   3211   3214     1   109.5600471 388.275200
   3215   3214   3217     1   108.7700466 392.459200
   3215   3214   3216     1   107.5800459 329.699200
   3216   3214   3217     1   108.7700466 392.459200
   3217   3219   3220     1   106.5500460 417.563200
   3222   3225   3226     1   109.8000471 387.438400
   3222   3225   3227     1   109.8000471 387.438400
   3223   3222   3225     1   109.5600471 388.275200
   3223   3222   3252     1   109.7800468 425.094400
   3223   3222   3224     1   108.4600466 328.025600
   3224   3222   3225     1   109.5600471 388.275200
   3224   3222   3252     1   109.7800468 425.094400
   3225   3228   3229     1   109.5600471 388.275200
   3225   3228   3230     1   109.5600471 388.275200
   3226   3225   3228     1   109.8000471 387.438400
   3226   3225   3227     1   107.5800459 329.699200
   3227   3225   3228     1   109.8000471 387.438400
   3229   3228   3231     1   109.8800469 414.216000
   3229   3228   3230     1   108.4600466 328.025600
   3230   3228   3231     1   109.8800469 414.216000
   3231   3232   3233     1   109.8800469 414.216000
   3231   3232   3234     1   109.8800469 414.216000
   3231   3242   3243     1   109.8800469 414.216000
   3231   3242   3244     1   109.8800469 414.216000
   3232   3235   3236     1   109.8000471 387.438400
   3232   3235   3237     1   109.8000471 387.438400
   3233   3232   3235     1   109.5600471 388.275200
   3233   3232   3234     1   108.4600466 328.025600
   3234   3232   3235     1   109.5600471 388.275200
   3236   3235   3238     1   108.7700466 392.459200
   3236   3235   3237     1   107.5800459 329.699200
   3237   3235   3238     1   108.7700466 392.459200
   3238   3240   3241     1   106.5500460 417.563200
   3242   3245   3246     1   109.8000471 387.438400
   3242   3245   3247     1   109.8000471 387.438400
   3243   3242   3245     1   109.5600471 388.275200
   3243   3242   3244     1   108.4600466 328.025600
   3244   3242   3245     1   109.5600471 388.275200
   3246   3245   3248     1   108.7700466 392.459200
   3246   3245   3247     1   107.5800459 329.699200
   3247   3245   3248     1   108.7700466 392.459200
   3248   3250   3251     1   106.5500460 417.563200
   3253   3256   3257     1   109.8000471 387.438400
   3253   3256   3258     1   109.8000471 387.438400
   3254   3253   3256     1   109.5600471 388.275200
   3254   3253   3283     1   109.7800468 425.094400
   3254   3253   3255     1   108.4600466 328.025600
   3255   3253   3256     1   109.5600471 388.275200
   3255   3253   3283     1   109.7800468 425.094400
   3256   3259   3260     1   109.5600471 388.275200
   3256   3259   3261     1   109.5600471 388.275200
   3257   3256   3259     1   109.8000471 387.438400
   3257   3256   3258     1   107.5800459 329.699200
   3258   3256   3259     1   109.8000471 387.438400
   3260   3259   3262     1   109.8800469 414.216000
   3260   3259   3261     1   108.4600466 328.025600
   3261   3259   3262     1   109.8800469 414.216000
   3262   3263   3264     1   109.8800469 414.216000
   3262   3263   3265     1   109.8800469 414.216000
   3262   3273   3274     1   109.8800469 414.216000
   3262   3273   3275     1   109.8800469 414.216000
   3263   3266   3267     1   109.8000471 387.438400
   3263   3266   3268     1   109.8000471 387.438400
   3264   3263   3266     1   109.5600471 388.275200
   3264   3263   3265     1   108.4600466 328.025600
   3265   3263   3266     1   109.5600471 388.275200
   3267   3266   3269     1   108.7700466 392.459200
   3267   3266   3268     1   107.5800459 329.699200
   3268   3266   3269     1   108.7700466 392.459200
   3269   3271   3272     1   106.5500460 417.563200
   3273   3276   3277     1   109.8000471 387.438400
   3273   3276   3278     1   109.8000471 387.438400
   3274   3273   3276     1   109.5600471 388.275200
   3274   3273   3275     1   108.4600466 328.025600
   3275   3273   3276     1   109.5600471 388.275200
   3277   3276   3279     1   108.7700466 392.459200
   3277   3276   3278     1   107.5800459 329.699200
   3278   3276   3279     1   108.7700466 392.459200
   3279   3281   3282     1   106.5500460 417.563200
   3284   3287   3288     1   109.8000471 387.438400
   3284   3287   3289     1   109.8000471 387.438400
   3285   3284   3287     1   109.5600471 388.275200
   3285   3284   3314     1   109.7800468 425.094400
   3285   3284   3286     1   108.4600466 328.025600
   3286   3284   3287     1   109.5600471 388.275200
   3286   3284   3314     1   109.7800468 425.094400
   3287   3290   3291     1   109.5600471 388.275200
   3287   3290   3292     1   109.5600471 388.275200
   3288   3287   3290     1   109.8000471 387.438400
   3288   3287   3289     1   107.5800459 329.699200
   3289   3287   3290     1   109.8000471 387.438400
   3291   3290   3293     1   109.8800469 414.216000
   3291   3290   3292     1   108.4600466 328.025600
   3292   3290   3293     1   109.8800469 414.216000
   3293   3294   3295     1   109.8800469 414.216000
   3293   3294   3296     1   109.8800469 414.216000
   3293   3304   3305     1   109.8800469 414.216000
   3293   3304   3306     1   109.8800469 414.216000
   3294   3297   3298     1   109.8000471 387.438400
   3294   3297   3299     1   109.8000471 387.438400
   3295   3294   3297     1   109.5600471 388.275200
   3295   3294   3296     1   108.4600466 328.025600
   3296   3294   3297     1   109.5600471 388.275200
   3298   3297   3300     1   108.7700466 392.459200
   3298   3297   3299     1   107.5800459 329.699200
   3299   3297   3300     1   108.7700466 392.459200
   3300   3302   3303     1   106.5500460 417.563200
   3304   3307   3308     1   109.8000471 387.438400
   3304   3307   3309     1   109.8000471 387.438400
   3305   3304   3307     1   109.5600471 388.275200
   3305   3304   3306     1   108.4600466 328.025600
   3306   3304   3307     1   109.5600471 388.275200
   3308   3307   3310     1   108.7700466 392.459200
   3308   3307   3309     1   107.5800459 329.699200
   3309   3307   3310     1   108.7700466 392.459200
   3310   3312   3313     1   106.5500460 417.563200
   3315   3318   3319     1   109.8000471 387.438400
   3315   3318   3320     1   109.8000471 387.438400
   3316   3315   3318     1   109.5600471 388.275200
   3316   3315   3345     1   109.7800468 425.094400
   3316   3315   3317     1   108.4600466 328.025600
   3317   3315   3318     1   109.5600471 388.275200
   3317   3315   3345     1   109.7800468 425.094400
   3318   3321   3322     1   109.5600471 388.275200
   3318   3321   3323     1   109.5600471 388.275200
   3319   3318   3321     1   109.8000471 387.438400
   3319   3318   3320     1   107.5800459 329.699200
   3320   3318   3321     1   109.8000471 387.438400
   3322   3321   3324     1   109.8800469 414.216000
   3322   3321   3323     1   108.4600466 328.025600
   3323   3321   3324     1   109.8800469 414.216000
   3324   3325   3326     1   109.8800469 414.216000
   3324   3325   3327     1   109.8800469 414.216000
   3324   3335   3336     1   109.8800469 414.216000
   3324   3335   3337     1   109.8800469 414.216000
   3325   3328   3329     1   109.8000471 387.438400
   3325   3328   3330     1   109.8000471 387.438400
   3326   3325   3328     1   109.5600471 388.275200
   3326   3325   3327     1   108.4600466 328.025600
   3327   3325   3328     1   109.5600471 388.275200
   3329   3328   3331     1   108.7700466 392.459200
   3329   3328   3330     1   107.5800459 329.699200
   3330   3328   3331     1   108.7700466 392.459200
   3331   3333   3334     1   106.5500460 417.563200
   3335   3338   3339     1   109.8000471 387.438400
   3335   3338   3340     1   109.8000471 387.438400
   3336   3335   3338     1   109.5600471 388.275200
   3336   3335   3337     1   108.4600466 328.025600
   3337   3335   3338     1   109.5600471 388.275200
   3339   3338   3341     1   108.7700466 392.459200
   3339   3338   3340     1   107.5800459 329.699200
   3340   3338   3341     1   108.7700466 392.459200
   3341   3343   3344     1   106.5500460 417.563200
   3346   3349   3350     1   109.8000471 387.438400
   3346   3349   3351     1   109.8000471 387.438400
   3347   3346   3349     1   109.5600471 388.275200
   3347   3346   3376     1   109.7800468 425.094400
   3347   3346   3348     1   108.4600466 328.025600
   3348   3346   3349     1   109.5600471 388.275200
   3348   3346   3376     1   109.7800468 425.094400
   3349   3352   3353     1   109.5600471 388.275200
   3349   3352   3354     1   109.5600471 388.275200
   3350   3349   3352     1   109.8000471 387.438400
   3350   3349   3351     1   107.5800459 329.699200
   3351   3349   3352     1   109.8000471 387.438400
   3353   3352   3355     1   109.8800469 414.216000
   3353   3352   3354     1   108.4600466 328.025600
   3354   3352   3355     1   109.8800469 414.216000
   3355   3356   3357     1   109.8800469 414.216000
   3355   3356   3358     1   109.8800469 414.216000
   3355   3366   3367     1   109.8800469 414.216000
   3355   3366   3368     1   109.8800469 414.216000
   3356   3359   3360     1   109.8000471 387.438400
   3356   3359   3361     1   109.8000471 387.438400
   3357   3356   3359     1   109.5600471 388.275200
   3357   3356   3358     1   108.4600466 328.025600
   3358   3356   3359     1   109.5600471 388.275200
   3360   3359   3362     1   108.7700466 392.459200
   3360   3359   3361     1   107.5800459 329.699200
   3361   3359   3362     1   108.7700466 392.459200
   3362   3364   3365     1   106.5500460 417.563200
   3366   3369   3370     1   109.8000471 387.438400
   3366   3369   3371     1   109.8000471 387.438400
   3367   3366   3369     1   109.5600471 388.275200
   3367   3366   3368     1   108.4600466 328.025600
   3368   3366   3369     1   109.5600471 388.275200
   3370   3369   3372     1   108.7700466 392.459200
   3370   3369   3371     1   107.5800459 329.699200
   3371   3369   3372     1   108.7700466 392.459200
   3372   3374   3375     1   106.5500460 417.563200
   3377   3380   3381     1   109.8000471 387.438400
   3377   3380   3382     1   109.8000471 387.438400
   3378   3377   3380     1   109.5600471 388.275200
   3378   3377   3407     1   109.7800468 425.094400
   3378   3377   3379     1   108.4600466 328.025600
   3379   3377   3380     1   109.5600471 388.275200
   3379   3377   3407     1   109.7800468 425.094400
   3380   3383   3384     1   109.5600471 388.275200
   3380   3383   3385     1   109.5600471 388.275200
   3381   3380   3383     1   109.8000471 387.438400
   3381   3380   3382     1   107.5800459 329.699200
   3382   3380   3383     1   109.8000471 387.438400
   3384   3383   3386     1   109.8800469 414.216000
   3384   3383   3385     1   108.4600466 328.025600
   3385   3383   3386     1   109.8800469 414.216000
   3386   3387   3388     1   109.8800469 414.216000
   3386   3387   3389     1   109.8800469 414.216000
   3386   3397   3398     1   109.8800469 414.216000
   3386   3397   3399     1   109.8800469 414.216000
   3387   3390   3391     1   109.8000471 387.438400
   3387   3390   3392     1   109.8000471 387.438400
   3388   3387   3390     1   109.5600471 388.275200
   3388   3387   3389     1   108.4600466 328.025600
   3389   3387   3390     1   109.5600471 388.275200
   3391   3390   3393     1   108.7700466 392.459200
   3391   3390   3392     1   107.5800459 329.699200
   3392   3390   3393     1   108.7700466 392.459200
   3393   3395   3396     1   106.5500460 417.563200
   3397   3400   3401     1   109.8000471 387.438400
   3397   3400   3402     1   109.8000471 387.438400
   3398   3397   3400     1   109.5600471 388.275200
   3398   3397   3399     1   108.4600466 328.025600
   3399   3397   3400     1   109.5600471 388.275200
   3401   3400   3403     1   108.7700466 392.459200
   3401   3400   3402     1   107.5800459 329.699200
   3402   3400   3403     1   108.7700466 392.459200
   3403   3405   3406     1   106.5500460 417.563200
   3408   3411   3412     1   109.8000471 387.438400
   3408   3411   3413     1   109.8000471 387.438400
   3409   3408   3411     1   109.5600471 388.275200
   3409   3408   3438     1   109.7800468 425.094400
   3409   3408   3410     1   108.4600466 328.025600
   3410   3408   3411     1   109.5600471 388.275200
   3410   3408   3438     1   109.7800468 425.094400
   3411   3414   3415     1   109.5600471 388.275200
   3411   3414   3416     1   109.5600471 388.275200
   3412   3411   3414     1   109.8000471 387.438400
   3412   3411   3413     1   107.5800459 329.699200
   3413   3411   3414     1   109.8000471 387.438400
   3415   3414   3417     1   109.8800469 414.216000
   3415   3414   3416     1   108.4600466 328.025600
   3416   3414   3417     1   109.8800469 414.216000
   3417   3418   3419     1   109.8800469 414.216000
   3417   3418   3420     1   109.8800469 414.216000
   3417   3428   3429     1   109.8800469 414.216000
   3417   3428   3430     1   109.8800469 414.216000
   3418   3421   3422     1   109.8000471 387.438400
   3418   3421   3423     1   109.8000471 387.438400
   3419   3418   3421     1   109.5600471 388.275200
   3419   3418   3420     1   108.4600466 328.025600
   3420   3418   3421     1   109.5600471 388.275200
   3422   3421   3424     1   108.7700466 392.459200
   3422   3421   3423     1   107.5800459 329.699200
   3423   3421   3424     1   108.7700466 392.459200
   3424   3426   3427     1   106.5500460 417.563200
   3428   3431   3432     1   109.8000471 387.438400
   3428   3431   3433     1   109.8000471 387.438400
   3429   3428   3431     1   109.5600471 388.275200
   3429   3428   3430     1   108.4600466 328.025600
   3430   3428   3431     1   109.5600471 388.275200
   3432   3431   3434     1   108.7700466 392.459200
   3432   3431   3433     1   107.5800459 329.699200
   3433   3431   3434     1   108.7700466 392.459200
   3434   3436   3437     1   106.5500460 417.563200
   3439   3442   3443     1   109.8000471 387.438400
   3439   3442   3444     1   109.8000471 387.438400
   3440   3439   3442     1   109.5600471 388.275200
   3440   3439   3469     1   109.7800468 425.094400
   3440   3439   3441     1   108.4600466 328.025600
   3441   3439   3442     1   109.5600471 388.275200
   3441   3439   3469     1   109.7800468 425.094400
   3442   3445   3446     1   109.5600471 388.275200
   3442   3445   3447     1   109.5600471 388.275200
   3443   3442   3445     1   109.8000471 387.438400
   3443   3442   3444     1   107.5800459 329.699200
   3444   3442   3445     1   109.8000471 387.438400
   3446   3445   3448     1   109.8800469 414.216000
   3446   3445   3447     1   108.4600466 328.025600
   3447   3445   3448     1   109.8800469 414.216000
   3448   3449   3450     1   109.8800469 414.216000
   3448   3449   3451     1   109.8800469 414.216000
   3448   3459   3460     1   109.8800469 414.216000
   3448   3459   3461     1   109.8800469 414.216000
   3449   3452   3453     1   109.8000471 387.438400
   3449   3452   3454     1   109.8000471 387.438400
   3450   3449   3452     1   109.5600471 388.275200
   3450   3449   3451     1   108.4600466 328.025600
   3451   3449   3452     1   109.5600471 388.275200
   3453   3452   3455     1   108.7700466 392.459200
   3453   3452   3454     1   107.5800459 329.699200
   3454   3452   3455     1   108.7700466 392.459200
   3455   3457   3458     1   106.5500460 417.563200
   3459   3462   3463     1   109.8000471 387.438400
   3459   3462   3464     1   109.8000471 387.438400
   3460   3459   3462     1   109.5600471 388.275200
   3460   3459   3461     1   108.4600466 328.025600
   3461   3459   3462     1   109.5600471 388.275200
   3463   3462   3465     1   108.7700466 392.459200
   3463   3462   3464     1   107.5800459 329.699200
   3464   3462   3465     1   108.7700466 392.459200
   3465   3467   3468     1   106.5500460 417.563200
   3470   3473   3474     1   109.8000471 387.438400
   3470   3473   3475     1   109.8000471 387.438400
   3471   3470   3473     1   109.5600471 388.275200
   3471   3470   3500     1   109.7800468 425.094400
   3471   3470   3472     1   108.4600466 328.025600
   3472   3470   3473     1   109.5600471 388.275200
   3472   3470   3500     1   109.7800468 425.094400
   3473   3476   3477     1   109.5600471 388.275200
   3473   3476   3478     1   109.5600471 388.275200
   3474   3473   3476     1   109.8000471 387.438400
   3474   3473   3475     1   107.5800459 329.699200
   3475   3473   3476     1   109.8000471 387.438400
   3477   3476   3479     1   109.8800469 414.216000
   3477   3476   3478     1   108.4600466 328.025600
   3478   3476   3479     1   109.8800469 414.216000
   3479   3480   3481     1   109.8800469 414.216000
   3479   3480   3482     1   109.8800469 414.216000
   3479   3490   3491     1   109.8800469 414.216000
   3479   3490   3492     1   109.8800469 414.216000
   3480   3483   3484     1   109.8000471 387.438400
   3480   3483   3485     1   109.8000471 387.438400
   3481   3480   3483     1   109.5600471 388.275200
   3481   3480   3482     1   108.4600466 328.025600
   3482   3480   3483     1   109.5600471 388.275200
   3484   3483   3486     1   108.7700466 392.459200
   3484   3483   3485     1   107.5800459 329.699200
   3485   3483   3486     1   108.7700466 392.459200
   3486   3488   3489     1   106.5500460 417.563200
   3490   3493   3494     1   109.8000471 387.438400
   3490   3493   3495     1   109.8000471 387.438400
   3491   3490   3493     1   109.5600471 388.275200
   3491   3490   3492     1   108.4600466 328.025600
   3492   3490   3493     1   109.5600471 388.275200
   3494   3493   3496     1   108.7700466 392.459200
   3494   3493   3495     1   107.5800459 329.699200
   3495   3493   3496     1   108.7700466 392.459200
   3496   3498   3499     1   106.5500460 417.563200
   3501   3504   3505     1   109.8000471 387.438400
   3501   3504   3506     1   109.8000471 387.438400
   3502   3501   3504     1   109.5600471 388.275200
   3502   3501   3531     1   109.7800468 425.094400
   3502   3501   3503     1   108.4600466 328.025600
   3503   3501   3504     1   109.5600471 388.275200
   3503   3501   3531     1   109.7800468 425.094400
   3504   3507   3508     1   109.5600471 388.275200
   3504   3507   3509     1   109.5600471 388.275200
   3505   3504   3507     1   109.8000471 387.438400
   3505   3504   3506     1   107.5800459 329.699200
   3506   3504   3507     1   109.8000471 387.438400
   3508   3507   3510     1   109.8800469 414.216000
   3508   3507   3509     1   108.4600466 328.025600
   3509   3507   3510     1   109.8800469 414.216000
   3510   3511   3512     1   109.8800469 414.216000
   3510   3511   3513     1   109.8800469 414.216000
   3510   3521   3522     1   109.8800469 414.216000
   3510   3521   3523     1   109.8800469 414.216000
   3511   3514   3515     1   109.8000471 387.438400
   3511   3514   3516     1   109.8000471 387.438400
   3512   3511   3514     1   109.5600471 388.275200
   3512   3511   3513     1   108.4600466 328.025600
   3513   3511   3514     1   109.5600471 388.275200
   3515   3514   3517     1   108.7700466 392.459200
   3515   3514   3516     1   107.5800459 329.699200
   3516   3514   3517     1   108.7700466 392.459200
   3517   3519   3520     1   106.5500460 417.563200
   3521   3524   3525     1   109.8000471 387.438400
   3521   3524   3526     1   109.8000471 387.438400
   3522   3521   3524     1   109.5600471 388.275200
   3522   3521   3523     1   108.4600466 328.025600
   3523   3521   3524     1   109.5600471 388.275200
   3525   3524   3527     1   108.7700466 392.459200
   3525   3524   3526     1   107.5800459 329.699200
   3526   3524   3527     1   108.7700466 392.459200
   3527   3529   3530     1   106.5500460 417.563200
   3532   3535   3536     1   109.8000471 387.438400
   3532   3535   3537     1   109.8000471 387.438400
   3533   3532   3535     1   109.5600471 388.275200
   3533   3532   3562     1   109.7800468 425.094400
   3533   3532   3534     1   108.4600466 328.025600
   3534   3532   3535     1   109.5600471 388.275200
   3534   3532   3562     1   109.7800468 425.094400
   3535   3538   3539     1   109.5600471 388.275200
   3535   3538   3540     1   109.5600471 388.275200
   3536   3535   3538     1   109.8000471 387.438400
   3536   3535   3537     1   107.5800459 329.699200
   3537   3535   3538     1   109.8000471 387.438400
   3539   3538   3541     1   109.8800469 414.216000
   3539   3538   3540     1   108.4600466 328.025600
   3540   3538   3541     1   109.8800469 414.216000
   3541   3542   3543     1   109.8800469 414.216000
   3541   3542   3544     1   109.8800469 414.216000
   3541   3552   3553     1   109.8800469 414.216000
   3541   3552   3554     1   109.8800469 414.216000
   3542   3545   3546     1   109.8000471 387.438400
   3542   3545   3547     1   109.8000471 387.438400
   3543   3542   3545     1   109.5600471 388.275200
   3543   3542   3544     1   108.4600466 328.025600
   3544   3542   3545     1   109.5600471 388.275200
   3546   3545   3548     1   108.7700466 392.459200
   3546   3545   3547     1   107.5800459 329.699200
   3547   3545   3548     1   108.7700466 392.459200
   3548   3550   3551     1   106.5500460 417.563200
   3552   3555   3556     1   109.8000471 387.438400
   3552   3555   3557     1   109.8000471 387.438400
   3553   3552   3555     1   109.5600471 388.275200
   3553   3552   3554     1   108.4600466 328.025600
   3554   3552   3555     1   109.5600471 388.275200
   3556   3555   3558     1   108.7700466 392.459200
   3556   3555   3557     1   107.5800459 329.699200
   3557   3555   3558     1   108.7700466 392.459200
   3558   3560   3561     1   106.5500460 417.563200
   3563   3566   3567     1   109.8000471 387.438400
   3563   3566   3568     1   109.8000471 387.438400
   3564   3563   3566     1   109.5600471 388.275200
   3564   3563   3593     1   109.7800468 425.094400
   3564   3563   3565     1   108.4600466 328.025600
   3565   3563   3566     1   109.5600471 388.275200
   3565   3563   3593     1   109.7800468 425.094400
   3566   3569   3570     1   109.5600471 388.275200
   3566   3569   3571     1   109.5600471 388.275200
   3567   3566   3569     1   109.8000471 387.438400
   3567   3566   3568     1   107.5800459 329.699200
   3568   3566   3569     1   109.8000471 387.438400
   3570   3569   3572     1   109.8800469 414.216000
   3570   3569   3571     1   108.4600466 328.025600
   3571   3569   3572     1   109.8800469 414.216000
   3572   3573   3574     1   109.8800469 414.216000
   3572   3573   3575     1   109.8800469 414.216000
   3572   3583   3584     1   109.8800469 414.216000
   3572   3583   3585     1   109.8800469 414.216000
   3573   3576   3577     1   109.8000471 387.438400
   3573   3576   3578     1   109.8000471 387.438400
   3574   3573   3576     1   109.5600471 388.275200
   3574   3573   3575     1   108.4600466 328.025600
   3575   3573   3576     1   109.5600471 388.275200
   3577   3576   3579     1   108.7700466 392.459200
   3577   3576   3578     1   107.5800459 329.699200
   3578   3576   3579     1   108.7700466 392.459200
   3579   3581   3582     1   106.5500460 417.563200
   3583   3586   3587     1   109.8000471 387.438400
   3583   3586   3588     1   109.8000471 387.438400
   3584   3583   3586     1   109.5600471 388.275200
   3584   3583   3585     1   108.4600466 328.025600
   3585   3583   3586     1   109.5600471 388.275200
   3587   3586   3589     1   108.7700466 392.459200
   3587   3586   3588     1   107.5800459 329.699200
   3588   3586   3589     1   108.7700466 392.459200
   3589   3591   3592     1   106.5500460 417.563200
   3594   3597   3598     1   109.8000471 387.438400
   3594   3597   3599     1   109.8000471 387.438400
   3595   3594   3597     1   109.5600471 388.275200
   3595   3594   3624     1   109.7800468 425.094400
   3595   3594   3596     1   108.4600466 328.025600
   3596   3594   3597     1   109.5600471 388.275200
   3596   3594   3624     1   109.7800468 425.094400
   3597   3600   3601     1   109.5600471 388.275200
   3597   3600   3602     1   109.5600471 388.275200
   3598   3597   3600     1   109.8000471 387.438400
   3598   3597   3599     1   107.5800459 329.699200
   3599   3597   3600     1   109.8000471 387.438400
   3601   3600   3603     1   109.8800469 414.216000
   3601   3600   3602     1   108.4600466 328.025600
   3602   3600   3603     1   109.8800469 414.216000
   3603   3604   3605     1   109.8800469 414.216000
   3603   3604   3606     1   109.8800469 414.216000
   3603   3614   3615     1   109.8800469 414.216000
   3603   3614   3616     1   109.8800469 414.216000
   3604   3607   3608     1   109.8000471 387.438400
   3604   3607   3609     1   109.8000471 387.438400
   3605   3604   3607     1   109.5600471 388.275200
   3605   3604   3606     1   108.4600466 328.025600
   3606   3604   3607     1   109.5600471 388.275200
   3608   3607   3610     1   108.7700466 392.459200
   3608   3607   3609     1   107.5800459 329.699200
   3609   3607   3610     1   108.7700466 392.459200
   3610   3612   3613     1   106.5500460 417.563200
   3614   3617   3618     1   109.8000471 387.438400
   3614   3617   3619     1   109.8000471 387.438400
   3615   3614   3617     1   109.5600471 388.275200
   3615   3614   3616     1   108.4600466 328.025600
   3616   3614   3617     1   109.5600471 388.275200
   3618   3617   3620     1   108.7700466 392.459200
   3618   3617   3619     1   107.5800459 329.699200
   3619   3617   3620     1   108.7700466 392.459200
   3620   3622   3623     1   106.5500460 417.563200
   3625   3628   3629     1   109.8000471 387.438400
   3625   3628   3630     1   109.8000471 387.438400
   3626   3625   3628     1   109.5600471 388.275200
   3626   3625   3655     1   109.7800468 425.094400
   3626   3625   3627     1   108.4600466 328.025600
   3627   3625   3628     1   109.5600471 388.275200
   3627   3625   3655     1   109.7800468 425.094400
   3628   3631   3632     1   109.5600471 388.275200
   3628   3631   3633     1   109.5600471 388.275200
   3629   3628   3631     1   109.8000471 387.438400
   3629   3628   3630     1   107.5800459 329.699200
   3630   3628   3631     1   109.8000471 387.438400
   3632   3631   3634     1   109.8800469 414.216000
   3632   3631   3633     1   108.4600466 328.025600
   3633   3631   3634     1   109.8800469 414.216000
   3634   3635   3636     1   109.8800469 414.216000
   3634   3635   3637     1   109.8800469 414.216000
   3634   3645   3646     1   109.8800469 414.216000
   3634   3645   3647     1   109.8800469 414.216000
   3635   3638   3639     1   109.8000471 387.438400
   3635   3638   3640     1   109.8000471 387.438400
   3636   3635   3638     1   109.5600471 388.275200
   3636   3635   3637     1   108.4600466 328.025600
   3637   3635   3638     1   109.5600471 388.275200
   3639   3638   3641     1   108.7700466 392.459200
   3639   3638   3640     1   107.5800459 329.699200
   3640   3638   3641     1   108.7700466 392.459200
   3641   3643   3644     1   106.5500460 417.563200
   3645   3648   3649     1   109.8000471 387.438400
   3645   3648   3650     1   109.8000471 387.438400
   3646   3645   3648     1   109.5600471 388.275200
   3646   3645   3647     1   108.4600466 328.025600
   3647   3645   3648     1   109.5600471 388.275200
   3649   3648   3651     1   108.7700466 392.459200
   3649   3648   3650     1   107.5800459 329.699200
   3650   3648   3651     1   108.7700466 392.459200
   3651   3653   3654     1   106.5500460 417.563200
   3656   3659   3660     1   109.8000471 387.438400
   3656   3659   3661     1   109.8000471 387.438400
   3657   3656   3659     1   109.5600471 388.275200
   3657   3656   3686     1   109.7800468 425.094400
   3657   3656   3658     1   108.4600466 328.025600
   3658   3656   3659     1   109.5600471 388.275200
   3658   3656   3686     1   109.7800468 425.094400
   3659   3662   3663     1   109.5600471 388.275200
   3659   3662   3664     1   109.5600471 388.275200
   3660   3659   3662     1   109.8000471 387.438400
   3660   3659   3661     1   107.5800459 329.699200
   3661   3659   3662     1   109.8000471 387.438400
   3663   3662   3665     1   109.8800469 414.216000
   3663   3662   3664     1   108.4600466 328.025600
   3664   3662   3665     1   109.8800469 414.216000
   3665   3666   3667     1   109.8800469 414.216000
   3665   3666   3668     1   109.8800469 414.216000
   3665   3676   3677     1   109.8800469 414.216000
   3665   3676   3678     1   109.8800469 414.216000
   3666   3669   3670     1   109.8000471 387.438400
   3666   3669   3671     1   109.8000471 387.438400
   3667   3666   3669     1   109.5600471 388.275200
   3667   3666   3668     1   108.4600466 328.025600
   3668   3666   3669     1   109.5600471 388.275200
   3670   3669   3672     1   108.7700466 392.459200
   3670   3669   3671     1   107.5800459 329.699200
   3671   3669   3672     1   108.7700466 392.459200
   3672   3674   3675     1   106.5500460 417.563200
   3676   3679   3680     1   109.8000471 387.438400
   3676   3679   3681     1   109.8000471 387.438400
   3677   3676   3679     1   109.5600471 388.275200
   3677   3676   3678     1   108.4600466 328.025600
   3678   3676   3679     1   109.5600471 388.275200
   3680   3679   3682     1   108.7700466 392.459200
   3680   3679   3681     1   107.5800459 329.699200
   3681   3679   3682     1   108.7700466 392.459200
   3682   3684   3685     1   106.5500460 417.563200
   3687   3690   3691     1   109.8000471 387.438400
   3687   3690   3692     1   109.8000471 387.438400
   3688   3687   3690     1   109.5600471 388.275200
   3688   3687   3717     1   109.7800468 425.094400
   3688   3687   3689     1   108.4600466 328.025600
   3689   3687   3690     1   109.5600471 388.275200
   3689   3687   3717     1   109.7800468 425.094400
   3690   3693   3694     1   109.5600471 388.275200
   3690   3693   3695     1   109.5600471 388.275200
   3691   3690   3693     1   109.8000471 387.438400
   3691   3690   3692     1   107.5800459 329.699200
   3692   3690   3693     1   109.8000471 387.438400
   3694   3693   3696     1   109.8800469 414.216000
   3694   3693   3695     1   108.4600466 328.025600
   3695   3693   3696     1   109.8800469 414.216000
   3696   3697   3698     1   109.8800469 414.216000
   3696   3697   3699     1   109.8800469 414.216000
   3696   3707   3708     1   109.8800469 414.216000
   3696   3707   3709     1   109.8800469 414.216000
   3697   3700   3701     1   109.8000471 387.438400
   3697   3700   3702     1   109.8000471 387.438400
   3698   3697   3700     1   109.5600471 388.275200
   3698   3697   3699     1   108.4600466 328.025600
   3699   3697   3700     1   109.5600471 388.275200
   3701   3700   3703     1   108.7700466 392.459200
   3701   3700   3702     1   107.5800459 329.699200
   3702   3700   3703     1   108.7700466 392.459200
   3703   3705   3706     1   106.5500460 417.563200
   3707   3710   3711     1   109.8000471 387.438400
   3707   3710   3712     1   109.8000471 387.438400
   3708   3707   3710     1   109.5600471 388.275200
   3708   3707   3709     1   108.4600466 328.025600
   3709   3707   3710     1   109.5600471 388.275200
   3711   3710   3713     1   108.7700466 392.459200
   3711   3710   3712     1   107.5800459 329.699200
   3712   3710   3713     1   108.7700466 392.459200
   3713   3715   3716     1   106.5500460 417.563200
   3718   3721   3722     1   109.8000471 387.438400
   3718   3721   3723     1   109.8000471 387.438400
   3719   3718   3721     1   109.5600471 388.275200
   3719   3718   3748     1   109.7800468 425.094400
   3719   3718   3720     1   108.4600466 328.025600
   3720   3718   3721     1   109.5600471 388.275200
   3720   3718   3748     1   109.7800468 425.094400
   3721   3724   3725     1   109.5600471 388.275200
   3721   3724   3726     1   109.5600471 388.275200
   3722   3721   3724     1   109.8000471 387.438400
   3722   3721   3723     1   107.5800459 329.699200
   3723   3721   3724     1   109.8000471 387.438400
   3725   3724   3727     1   109.8800469 414.216000
   3725   3724   3726     1   108.4600466 328.025600
   3726   3724   3727     1   109.8800469 414.216000
   3727   3728   3729     1   109.8800469 414.216000
   3727   3728   3730     1   109.8800469 414.216000
   3727   3738   3739     1   109.8800469 414.216000
   3727   3738   3740     1   109.8800469 414.216000
   3728   3731   3732     1   109.8000471 387.438400
   3728   3731   3733     1   109.8000471 387.438400
   3729   3728   3731     1   109.5600471 388.275200
   3729   3728   3730     1   108.4600466 328.025600
   3730   3728   3731     1   109.5600471 388.275200
   3732   3731   3734     1   108.7700466 392.459200
   3732   3731   3733     1   107.5800459 329.699200
   3733   3731   3734     1   108.7700466 392.459200
   3734   3736   3737     1   106.5500460 417.563200
   3738   3741   3742     1   109.8000471 387.438400
   3738   3741   3743     1   109.8000471 387.438400
   3739   3738   3741     1   109.5600471 388.275200
   3739   3738   3740     1   108.4600466 328.025600
   3740   3738   3741     1   109.5600471 388.275200
   3742   3741   3744     1   108.7700466 392.459200
   3742   3741   3743     1   107.5800459 329.699200
   3743   3741   3744     1   108.7700466 392.459200
   3744   3746   3747     1   106.5500460 417.563200
   3749   3752   3753     1   109.8000471 387.438400
   3749   3752   3754     1   109.8000471 387.438400
   3750   3749   3752     1   109.5600471 388.275200
   3750   3749   3779     1   109.7800468 425.094400
   3750   3749   3751     1   108.4600466 328.025600
   3751   3749   3752     1   109.5600471 388.275200
   3751   3749   3779     1   109.7800468 425.094400
   3752   3755   3756     1   109.5600471 388.275200
   3752   3755   3757     1   109.5600471 388.275200
   3753   3752   3755     1   109.8000471 387.438400
   3753   3752   3754     1   107.5800459 329.699200
   3754   3752   3755     1   109.8000471 387.438400
   3756   3755   3758     1   109.8800469 414.216000
   3756   3755   3757     1   108.4600466 328.025600
   3757   3755   3758     1   109.8800469 414.216000
   3758   3759   3760     1   109.8800469 414.216000
   3758   3759   3761     1   109.8800469 414.216000
   3758   3769   3770     1   109.8800469 414.216000
   3758   3769   3771     1   109.8800469 414.216000
   3759   3762   3763     1   109.8000471 387.438400
   3759   3762   3764     1   109.8000471 387.438400
   3760   3759   3762     1   109.5600471 388.275200
   3760   3759   3761     1   108.4600466 328.025600
   3761   3759   3762     1   109.5600471 388.275200
   3763   3762   3765     1   108.7700466 392.459200
   3763   3762   3764     1   107.5800459 329.699200
   3764   3762   3765     1   108.7700466 392.459200
   3765   3767   3768     1   106.5500460 417.563200
   3769   3772   3773     1   109.8000471 387.438400
   3769   3772   3774     1   109.8000471 387.438400
   3770   3769   3772     1   109.5600471 388.275200
   3770   3769   3771     1   108.4600466 328.025600
   3771   3769   3772     1   109.5600471 388.275200
   3773   3772   3775     1   108.7700466 392.459200
   3773   3772   3774     1   107.5800459 329.699200
   3774   3772   3775     1   108.7700466 392.459200
   3775   3777   3778     1   106.5500460 417.563200
   3780   3783   3784     1   109.8000471 387.438400
   3780   3783   3785     1   109.8000471 387.438400
   3781   3780   3783     1   109.5600471 388.275200
   3781   3780   3810     1   109.7800468 425.094400
   3781   3780   3782     1   108.4600466 328.025600
   3782   3780   3783     1   109.5600471 388.275200
   3782   3780   3810     1   109.7800468 425.094400
   3783   3786   3787     1   109.5600471 388.275200
   3783   3786   3788     1   109.5600471 388.275200
   3784   3783   3786     1   109.8000471 387.438400
   3784   3783   3785     1   107.5800459 329.699200
   3785   3783   3786     1   109.8000471 387.438400
   3787   3786   3789     1   109.8800469 414.216000
   3787   3786   3788     1   108.4600466 328.025600
   3788   3786   3789     1   109.8800469 414.216000
   3789   3790   3791     1   109.8800469 414.216000
   3789   3790   3792     1   109.8800469 414.216000
   3789   3800   3801     1   109.8800469 414.216000
   3789   3800   3802     1   109.8800469 414.216000
   3790   3793   3794     1   109.8000471 387.438400
   3790   3793   3795     1   109.8000471 387.438400
   3791   3790   3793     1   109.5600471 388.275200
   3791   3790   3792     1   108.4600466 328.025600
   3792   3790   3793     1   109.5600471 388.275200
   3794   3793   3796     1   108.7700466 392.459200
   3794   3793   3795     1   107.5800459 329.699200
   3795   3793   3796     1   108.7700466 392.459200
   3796   3798   3799     1   106.5500460 417.563200
   3800   3803   3804     1   109.8000471 387.438400
   3800   3803   3805     1   109.8000471 387.438400
   3801   3800   3803     1   109.5600471 388.275200
   3801   3800   3802     1   108.4600466 328.025600
   3802   3800   3803     1   109.5600471 388.275200
   3804   3803   3806     1   108.7700466 392.459200
   3804   3803   3805     1   107.5800459 329.699200
   3805   3803   3806     1   108.7700466 392.459200
   3806   3808   3809     1   106.5500460 417.563200
   3811   3814   3815     1   109.8000471 387.438400
   3811   3814   3816     1   109.8000471 387.438400
   3812   3811   3814     1   109.5600471 388.275200
   3812   3811   3841     1   109.7800468 425.094400
   3812   3811   3813     1   108.4600466 328.025600
   3813   3811   3814     1   109.5600471 388.275200
   3813   3811   3841     1   109.7800468 425.094400
   3814   3817   3818     1   109.5600471 388.275200
   3814   3817   3819     1   109.5600471 388.275200
   3815   3814   3817     1   109.8000471 387.438400
   3815   3814   3816     1   107.5800459 329.699200
   3816   3814   3817     1   109.8000471 387.438400
   3818   3817   3820     1   109.8800469 414.216000
   3818   3817   3819     1   108.4600466 328.025600
   3819   3817   3820     1   109.8800469 414.216000
   3820   3821   3822     1   109.8800469 414.216000
   3820   3821   3823     1   109.8800469 414.216000
   3820   3831   3832     1   109.8800469 414.216000
   3820   3831   3833     1   109.8800469 414.216000
   3821   3824   3825     1   109.8000471 387.438400
   3821   3824   3826     1   109.8000471 387.438400
   3822   3821   3824     1   109.5600471 388.275200
   3822   3821   3823     1   108.4600466 328.025600
   3823   3821   3824     1   109.5600471 388.275200
   3825   3824   3827     1   108.7700466 392.459200
   3825   3824   3826     1   107.5800459 329.699200
   3826   3824   3827     1   108.7700466 392.459200
   3827   3829   3830     1   106.5500460 417.563200
   3831   3834   3835     1   109.8000471 387.438400
   3831   3834   3836     1   109.8000471 387.438400
   3832   3831   3834     1   109.5600471 388.275200
   3832   3831   3833     1   108.4600466 328.025600
   3833   3831   3834     1   109.5600471 388.275200
   3835   3834   3837     1   108.7700466 392.459200
   3835   3834   3836     1   107.5800459 329.699200
   3836   3834   3837     1   108.7700466 392.459200
   3837   3839   3840     1   106.5500460 417.563200
   3842   3845   3846     1   109.8000471 387.438400
   3842   3845   3847     1   109.8000471 387.438400
   3843   3842   3845     1   109.5600471 388.275200
   3843   3842   3872     1   109.7800468 425.094400
   3843   3842   3844     1   108.4600466 328.025600
   3844   3842   3845     1   109.5600471 388.275200
   3844   3842   3872     1   109.7800468 425.094400
   3845   3848   3849     1   109.5600471 388.275200
   3845   3848   3850     1   109.5600471 388.275200
   3846   3845   3848     1   109.8000471 387.438400
   3846   3845   3847     1   107.5800459 329.699200
   3847   3845   3848     1   109.8000471 387.438400
   3849   3848   3851     1   109.8800469 414.216000
   3849   3848   3850     1   108.4600466 328.025600
   3850   3848   3851     1   109.8800469 414.216000
   3851   3852   3853     1   109.8800469 414.216000
   3851   3852   3854     1   109.8800469 414.216000
   3851   3862   3863     1   109.8800469 414.216000
   3851   3862   3864     1   109.8800469 414.216000
   3852   3855   3856     1   109.8000471 387.438400
   3852   3855   3857     1   109.8000471 387.438400
   3853   3852   3855     1   109.5600471 388.275200
   3853   3852   3854     1   108.4600466 328.025600
   3854   3852   3855     1   109.5600471 388.275200
   3856   3855   3858     1   108.7700466 392.459200
   3856   3855   3857     1   107.5800459 329.699200
   3857   3855   3858     1   108.7700466 392.459200
   3858   3860   3861     1   106.5500460 417.563200
   3862   3865   3866     1   109.8000471 387.438400
   3862   3865   3867     1   109.8000471 387.438400
   3863   3862   3865     1   109.5600471 388.275200
   3863   3862   3864     1   108.4600466 328.025600
   3864   3862   3865     1   109.5600471 388.275200
   3866   3865   3868     1   108.7700466 392.459200
   3866   3865   3867     1   107.5800459 329.699200
   3867   3865   3868     1   108.7700466 392.459200
   3868   3870   3871     1   106.5500460 417.563200
   3873   3876   3877     1   109.8000471 387.438400
   3873   3876   3878     1   109.8000471 387.438400
   3874   3873   3876     1   109.5600471 388.275200
   3874   3873   3903     1   109.7800468 425.094400
   3874   3873   3875     1   108.4600466 328.025600
   3875   3873   3876     1   109.5600471 388.275200
   3875   3873   3903     1   109.7800468 425.094400
   3876   3879   3880     1   109.5600471 388.275200
   3876   3879   3881     1   109.5600471 388.275200
   3877   3876   3879     1   109.8000471 387.438400
   3877   3876   3878     1   107.5800459 329.699200
   3878   3876   3879     1   109.8000471 387.438400
   3880   3879   3882     1   109.8800469 414.216000
   3880   3879   3881     1   108.4600466 328.025600
   3881   3879   3882     1   109.8800469 414.216000
   3882   3883   3884     1   109.8800469 414.216000
   3882   3883   3885     1   109.8800469 414.216000
   3882   3893   3894     1   109.8800469 414.216000
   3882   3893   3895     1   109.8800469 414.216000
   3883   3886   3887     1   109.8000471 387.438400
   3883   3886   3888     1   109.8000471 387.438400
   3884   3883   3886     1   109.5600471 388.275200
   3884   3883   3885     1   108.4600466 328.025600
   3885   3883   3886     1   109.5600471 388.275200
   3887   3886   3889     1   108.7700466 392.459200
   3887   3886   3888     1   107.5800459 329.699200
   3888   3886   3889     1   108.7700466 392.459200
   3889   3891   3892     1   106.5500460 417.563200
   3893   3896   3897     1   109.8000471 387.438400
   3893   3896   3898     1   109.8000471 387.438400
   3894   3893   3896     1   109.5600471 388.275200
   3894   3893   3895     1   108.4600466 328.025600
   3895   3893   3896     1   109.5600471 388.275200
   3897   3896   3899     1   108.7700466 392.459200
   3897   3896   3898     1   107.5800459 329.699200
   3898   3896   3899     1   108.7700466 392.459200
   3899   3901   3902     1   106.5500460 417.563200
   3904   3907   3908     1   109.8000471 387.438400
   3904   3907   3909     1   109.8000471 387.438400
   3905   3904   3907     1   109.5600471 388.275200
   3905   3904   3934     1   109.7800468 425.094400
   3905   3904   3906     1   108.4600466 328.025600
   3906   3904   3907     1   109.5600471 388.275200
   3906   3904   3934     1   109.7800468 425.094400
   3907   3910   3911     1   109.5600471 388.275200
   3907   3910   3912     1   109.5600471 388.275200
   3908   3907   3910     1   109.8000471 387.438400
   3908   3907   3909     1   107.5800459 329.699200
   3909   3907   3910     1   109.8000471 387.438400
   3911   3910   3913     1   109.8800469 414.216000
   3911   3910   3912     1   108.4600466 328.025600
   3912   3910   3913     1   109.8800469 414.216000
   3913   3914   3915     1   109.8800469 414.216000
   3913   3914   3916     1   109.8800469 414.216000
   3913   3924   3925     1   109.8800469 414.216000
   3913   3924   3926     1   109.8800469 414.216000
   3914   3917   3918     1   109.8000471 387.438400
   3914   3917   3919     1   109.8000471 387.438400
   3915   3914   3917     1   109.5600471 388.275200
   3915   3914   3916     1   108.4600466 328.025600
   3916   3914   3917     1   109.5600471 388.275200
   3918   3917   3920     1   108.7700466 392.459200
   3918   3917   3919     1   107.5800459 329.699200
   3919   3917   3920     1   108.7700466 392.459200
   3920   3922   3923     1   106.5500460 417.563200
   3924   3927   3928     1   109.8000471 387.438400
   3924   3927   3929     1   109.8000471 387.438400
   3925   3924   3927     1   109.5600471 388.275200
   3925   3924   3926     1   108.4600466 328.025600
   3926   3924   3927     1   109.5600471 388.275200
   3928   3927   3930     1   108.7700466 392.459200
   3928   3927   3929     1   107.5800459 329.699200
   3929   3927   3930     1   108.7700466 392.459200
   3930   3932   3933     1   106.5500460 417.563200
   3935   3938   3939     1   109.8000471 387.438400
   3935   3938   3940     1   109.8000471 387.438400
   3936   3935   3938     1   109.5600471 388.275200
   3936   3935   3965     1   109.7800468 425.094400
   3936   3935   3937     1   108.4600466 328.025600
   3937   3935   3938     1   109.5600471 388.275200
   3937   3935   3965     1   109.7800468 425.094400
   3938   3941   3942     1   109.5600471 388.275200
   3938   3941   3943     1   109.5600471 388.275200
   3939   3938   3941     1   109.8000471 387.438400
   3939   3938   3940     1   107.5800459 329.699200
   3940   3938   3941     1   109.8000471 387.438400
   3942   3941   3944     1   109.8800469 414.216000
   3942   3941   3943     1   108.4600466 328.025600
   3943   3941   3944     1   109.8800469 414.216000
   3944   3945   3946     1   109.8800469 414.216000
   3944   3945   3947     1   109.8800469 414.216000
   3944   3955   3956     1   109.8800469 414.216000
   3944   3955   3957     1   109.8800469 414.216000
   3945   3948   3949     1   109.8000471 387.438400
   3945   3948   3950     1   109.8000471 387.438400
   3946   3945   3948     1   109.5600471 388.275200
   3946   3945   3947     1   108.4600466 328.025600
   3947   3945   3948     1   109.5600471 388.275200
   3949   3948   3951     1   108.7700466 392.459200
   3949   3948   3950     1   107.5800459 329.699200
   3950   3948   3951     1   108.7700466 392.459200
   3951   3953   3954     1   106.5500460 417.563200
   3955   3958   3959     1   109.8000471 387.438400
   3955   3958   3960     1   109.8000471 387.438400
   3956   3955   3958     1   109.5600471 388.275200
   3956   3955   3957     1   108.4600466 328.025600
   3957   3955   3958     1   109.5600471 388.275200
   3959   3958   3961     1   108.7700466 392.459200
   3959   3958   3960     1   107.5800459 329.699200
   3960   3958   3961     1   108.7700466 392.459200
   3961   3963   3964     1   106.5500460 417.563200
   3966   3969   3970     1   109.8000471 387.438400
   3966   3969   3971     1   109.8000471 387.438400
   3967   3966   3969     1   109.5600471 388.275200
   3967   3966   3996     1   109.7800468 425.094400
   3967   3966   3968     1   108.4600466 328.025600
   3968   3966   3969     1   109.5600471 388.275200
   3968   3966   3996     1   109.7800468 425.094400
   3969   3972   3973     1   109.5600471 388.275200
   3969   3972   3974     1   109.5600471 388.275200
   3970   3969   3972     1   109.8000471 387.438400
   3970   3969   3971     1   107.5800459 329.699200
   3971   3969   3972     1   109.8000471 387.438400
   3973   3972   3975     1   109.8800469 414.216000
   3973   3972   3974     1   108.4600466 328.025600
   3974   3972   3975     1   109.8800469 414.216000
   3975   3976   3977     1   109.8800469 414.216000
   3975   3976   3978     1   109.8800469 414.216000
   3975   3986   3987     1   109.8800469 414.216000
   3975   3986   3988     1   109.8800469 414.216000
   3976   3979   3980     1   109.8000471 387.438400
   3976   3979   3981     1   109.8000471 387.438400
   3977   3976   3979     1   109.5600471 388.275200
   3977   3976   3978     1   108.4600466 328.025600
   3978   3976   3979     1   109.5600471 388.275200
   3980   3979   3982     1   108.7700466 392.459200
   3980   3979   3981     1   107.5800459 329.699200
   3981   3979   3982     1   108.7700466 392.459200
   3982   3984   3985     1   106.5500460 417.563200
   3986   3989   3990     1   109.8000471 387.438400
   3986   3989   3991     1   109.8000471 387.438400
   3987   3986   3989     1   109.5600471 388.275200
   3987   3986   3988     1   108.4600466 328.025600
   3988   3986   3989     1   109.5600471 388.275200
   3990   3989   3992     1   108.7700466 392.459200
   3990   3989   3991     1   107.5800459 329.699200
   3991   3989   3992     1   108.7700466 392.459200
   3992   3994   3995     1   106.5500460 417.563200
   3997   4000   4001     1   109.8000471 387.438400
   3997   4000   4002     1   109.8000471 387.438400
   3998   3997   4000     1   109.5600471 388.275200
   3998   3997   4027     1   109.7800468 425.094400
   3998   3997   3999     1   108.4600466 328.025600
   3999   3997   4000     1   109.5600471 388.275200
   3999   3997   4027     1   109.7800468 425.094400
   4000   4003   4004     1   109.5600471 388.275200
   4000   4003   4005     1   109.5600471 388.275200
   4001   4000   4003     1   109.8000471 387.438400
   4001   4000   4002     1   107.5800459 329.699200
   4002   4000   4003     1   109.8000471 387.438400
   4004   4003   4006     1   109.8800469 414.216000
   4004   4003   4005     1   108.4600466 328.025600
   4005   4003   4006     1   109.8800469 414.216000
   4006   4007   4008     1   109.8800469 414.216000
   4006   4007   4009     1   109.8800469 414.216000
   4006   4017   4018     1   109.8800469 414.216000
   4006   4017   4019     1   109.8800469 414.216000
   4007   4010   4011     1   109.8000471 387.438400
   4007   4010   4012     1   109.8000471 387.438400
   4008   4007   4010     1   109.5600471 388.275200
   4008   4007   4009     1   108.4600466 328.025600
   4009   4007   4010     1   109.5600471 388.275200
   4011   4010   4013     1   108.7700466 392.459200
   4011   4010   4012     1   107.5800459 329.699200
   4012   4010   4013     1   108.7700466 392.459200
   4013   4015   4016     1   106.5500460 417.563200
   4017   4020   4021     1   109.8000471 387.438400
   4017   4020   4022     1   109.8000471 387.438400
   4018   4017   4020     1   109.5600471 388.275200
   4018   4017   4019     1   108.4600466 328.025600
   4019   4017   4020     1   109.5600471 388.275200
   4021   4020   4023     1   108.7700466 392.459200
   4021   4020   4022     1   107.5800459 329.699200
   4022   4020   4023     1   108.7700466 392.459200
   4023   4025   4026     1   106.5500460 417.563200
   4028   4031   4032     1   109.8000471 387.438400
   4028   4031   4033     1   109.8000471 387.438400
   4029   4028   4031     1   109.5600471 388.275200
   4029   4028   4058     1   109.7800468 425.094400
   4029   4028   4030     1   108.4600466 328.025600
   4030   4028   4031     1   109.5600471 388.275200
   4030   4028   4058     1   109.7800468 425.094400
   4031   4034   4035     1   109.5600471 388.275200
   4031   4034   4036     1   109.5600471 388.275200
   4032   4031   4034     1   109.8000471 387.438400
   4032   4031   4033     1   107.5800459 329.699200
   4033   4031   4034     1   109.8000471 387.438400
   4035   4034   4037     1   109.8800469 414.216000
   4035   4034   4036     1   108.4600466 328.025600
   4036   4034   4037     1   109.8800469 414.216000
   4037   4038   4039     1   109.8800469 414.216000
   4037   4038   4040     1   109.8800469 414.216000
   4037   4048   4049     1   109.8800469 414.216000
   4037   4048   4050     1   109.8800469 414.216000
   4038   4041   4042     1   109.8000471 387.438400
   4038   4041   4043     1   109.8000471 387.438400
   4039   4038   4041     1   109.5600471 388.275200
   4039   4038   4040     1   108.4600466 328.025600
   4040   4038   4041     1   109.5600471 388.275200
   4042   4041   4044     1   108.7700466 392.459200
   4042   4041   4043     1   107.5800459 329.699200
   4043   4041   4044     1   108.7700466 392.459200
   4044   4046   4047     1   106.5500460 417.563200
   4048   4051   4052     1   109.8000471 387.438400
   4048   4051   4053     1   109.8000471 387.438400
   4049   4048   4051     1   109.5600471 388.275200
   4049   4048   4050     1   108.4600466 328.025600
   4050   4048   4051     1   109.5600471 388.275200
   4052   4051   4054     1   108.7700466 392.459200
   4052   4051   4053     1   107.5800459 329.699200
   4053   4051   4054     1   108.7700466 392.459200
   4054   4056   4057     1   106.5500460 417.563200
   4059   4062   4063     1   109.8000471 387.438400
   4059   4062   4064     1   109.8000471 387.438400
   4060   4059   4062     1   109.5600471 388.275200
   4060   4059   4089     1   109.7800468 425.094400
   4060   4059   4061     1   108.4600466 328.025600
   4061   4059   4062     1   109.5600471 388.275200
   4061   4059   4089     1   109.7800468 425.094400
   4062   4065   4066     1   109.5600471 388.275200
   4062   4065   4067     1   109.5600471 388.275200
   4063   4062   4065     1   109.8000471 387.438400
   4063   4062   4064     1   107.5800459 329.699200
   4064   4062   4065     1   109.8000471 387.438400
   4066   4065   4068     1   109.8800469 414.216000
   4066   4065   4067     1   108.4600466 328.025600
   4067   4065   4068     1   109.8800469 414.216000
   4068   4069   4070     1   109.8800469 414.216000
   4068   4069   4071     1   109.8800469 414.216000
   4068   4079   4080     1   109.8800469 414.216000
   4068   4079   4081     1   109.8800469 414.216000
   4069   4072   4073     1   109.8000471 387.438400
   4069   4072   4074     1   109.8000471 387.438400
   4070   4069   4072     1   109.5600471 388.275200
   4070   4069   4071     1   108.4600466 328.025600
   4071   4069   4072     1   109.5600471 388.275200
   4073   4072   4075     1   108.7700466 392.459200
   4073   4072   4074     1   107.5800459 329.699200
   4074   4072   4075     1   108.7700466 392.459200
   4075   4077   4078     1   106.5500460 417.563200
   4079   4082   4083     1   109.8000471 387.438400
   4079   4082   4084     1   109.8000471 387.438400
   4080   4079   4082     1   109.5600471 388.275200
   4080   4079   4081     1   108.4600466 328.025600
   4081   4079   4082     1   109.5600471 388.275200
   4083   4082   4085     1   108.7700466 392.459200
   4083   4082   4084     1   107.5800459 329.699200
   4084   4082   4085     1   108.7700466 392.459200
   4085   4087   4088     1   106.5500460 417.563200
   4090   4093   4094     1   109.8000471 387.438400
   4090   4093   4095     1   109.8000471 387.438400
   4091   4090   4093     1   109.5600471 388.275200
   4091   4090   4120     1   109.7800468 425.094400
   4091   4090   4092     1   108.4600466 328.025600
   4092   4090   4093     1   109.5600471 388.275200
   4092   4090   4120     1   109.7800468 425.094400
   4093   4096   4097     1   109.5600471 388.275200
   4093   4096   4098     1   109.5600471 388.275200
   4094   4093   4096     1   109.8000471 387.438400
   4094   4093   4095     1   107.5800459 329.699200
   4095   4093   4096     1   109.8000471 387.438400
   4097   4096   4099     1   109.8800469 414.216000
   4097   4096   4098     1   108.4600466 328.025600
   4098   4096   4099     1   109.8800469 414.216000
   4099   4100   4101     1   109.8800469 414.216000
   4099   4100   4102     1   109.8800469 414.216000
   4099   4110   4111     1   109.8800469 414.216000
   4099   4110   4112     1   109.8800469 414.216000
   4100   4103   4104     1   109.8000471 387.438400
   4100   4103   4105     1   109.8000471 387.438400
   4101   4100   4103     1   109.5600471 388.275200
   4101   4100   4102     1   108.4600466 328.025600
   4102   4100   4103     1   109.5600471 388.275200
   4104   4103   4106     1   108.7700466 392.459200
   4104   4103   4105     1   107.5800459 329.699200
   4105   4103   4106     1   108.7700466 392.459200
   4106   4108   4109     1   106.5500460 417.563200
   4110   4113   4114     1   109.8000471 387.438400
   4110   4113   4115     1   109.8000471 387.438400
   4111   4110   4113     1   109.5600471 388.275200
   4111   4110   4112     1   108.4600466 328.025600
   4112   4110   4113     1   109.5600471 388.275200
   4114   4113   4116     1   108.7700466 392.459200
   4114   4113   4115     1   107.5800459 329.699200
   4115   4113   4116     1   108.7700466 392.459200
   4116   4118   4119     1   106.5500460 417.563200
   4121   4124   4125     1   109.8000471 387.438400
   4121   4124   4126     1   109.8000471 387.438400
   4122   4121   4124     1   109.5600471 388.275200
   4122   4121   4151     1   109.7800468 425.094400
   4122   4121   4123     1   108.4600466 328.025600
   4123   4121   4124     1   109.5600471 388.275200
   4123   4121   4151     1   109.7800468 425.094400
   4124   4127   4128     1   109.5600471 388.275200
   4124   4127   4129     1   109.5600471 388.275200
   4125   4124   4127     1   109.8000471 387.438400
   4125   4124   4126     1   107.5800459 329.699200
   4126   4124   4127     1   109.8000471 387.438400
   4128   4127   4130     1   109.8800469 414.216000
   4128   4127   4129     1   108.4600466 328.025600
   4129   4127   4130     1   109.8800469 414.216000
   4130   4131   4132     1   109.8800469 414.216000
   4130   4131   4133     1   109.8800469 414.216000
   4130   4141   4142     1   109.8800469 414.216000
   4130   4141   4143     1   109.8800469 414.216000
   4131   4134   4135     1   109.8000471 387.438400
   4131   4134   4136     1   109.8000471 387.438400
   4132   4131   4134     1   109.5600471 388.275200
   4132   4131   4133     1   108.4600466 328.025600
   4133   4131   4134     1   109.5600471 388.275200
   4135   4134   4137     1   108.7700466 392.459200
   4135   4134   4136     1   107.5800459 329.699200
   4136   4134   4137     1   108.7700466 392.459200
   4137   4139   4140     1   106.5500460 417.563200
   4141   4144   4145     1   109.8000471 387.438400
   4141   4144   4146     1   109.8000471 387.438400
   4142   4141   4144     1   109.5600471 388.275200
   4142   4141   4143     1   108.4600466 328.025600
   4143   4141   4144     1   109.5600471 388.275200
   4145   4144   4147     1   108.7700466 392.459200
   4145   4144   4146     1   107.5800459 329.699200
   4146   4144   4147     1   108.7700466 392.459200
   4147   4149   4150     1   106.5500460 417.563200
   4152   4155   4156     1   109.8000471 387.438400
   4152   4155   4157     1   109.8000471 387.438400
   4153   4152   4155     1   109.5600471 388.275200
   4153   4152   4182     1   109.7800468 425.094400
   4153   4152   4154     1   108.4600466 328.025600
   4154   4152   4155     1   109.5600471 388.275200
   4154   4152   4182     1   109.7800468 425.094400
   4155   4158   4159     1   109.5600471 388.275200
   4155   4158   4160     1   109.5600471 388.275200
   4156   4155   4158     1   109.8000471 387.438400
   4156   4155   4157     1   107.5800459 329.699200
   4157   4155   4158     1   109.8000471 387.438400
   4159   4158   4161     1   109.8800469 414.216000
   4159   4158   4160     1   108.4600466 328.025600
   4160   4158   4161     1   109.8800469 414.216000
   4161   4162   4163     1   109.8800469 414.216000
   4161   4162   4164     1   109.8800469 414.216000
   4161   4172   4173     1   109.8800469 414.216000
   4161   4172   4174     1   109.8800469 414.216000
   4162   4165   4166     1   109.8000471 387.438400
   4162   4165   4167     1   109.8000471 387.438400
   4163   4162   4165     1   109.5600471 388.275200
   4163   4162   4164     1   108.4600466 328.025600
   4164   4162   4165     1   109.5600471 388.275200
   4166   4165   4168     1   108.7700466 392.459200
   4166   4165   4167     1   107.5800459 329.699200
   4167   4165   4168     1   108.7700466 392.459200
   4168   4170   4171     1   106.5500460 417.563200
   4172   4175   4176     1   109.8000471 387.438400
   4172   4175   4177     1   109.8000471 387.438400
   4173   4172   4175     1   109.5600471 388.275200
   4173   4172   4174     1   108.4600466 328.025600
   4174   4172   4175     1   109.5600471 388.275200
   4176   4175   4178     1   108.7700466 392.459200
   4176   4175   4177     1   107.5800459 329.699200
   4177   4175   4178     1   108.7700466 392.459200
   4178   4180   4181     1   106.5500460 417.563200
   4183   4186   4187     1   109.8000471 387.438400
   4183   4186   4188     1   109.8000471 387.438400
   4184   4183   4186     1   109.5600471 388.275200
   4184   4183   4213     1   109.7800468 425.094400
   4184   4183   4185     1   108.4600466 328.025600
   4185   4183   4186     1   109.5600471 388.275200
   4185   4183   4213     1   109.7800468 425.094400
   4186   4189   4190     1   109.5600471 388.275200
   4186   4189   4191     1   109.5600471 388.275200
   4187   4186   4189     1   109.8000471 387.438400
   4187   4186   4188     1   107.5800459 329.699200
   4188   4186   4189     1   109.8000471 387.438400
   4190   4189   4192     1   109.8800469 414.216000
   4190   4189   4191     1   108.4600466 328.025600
   4191   4189   4192     1   109.8800469 414.216000
   4192   4193   4194     1   109.8800469 414.216000
   4192   4193   4195     1   109.8800469 414.216000
   4192   4203   4204     1   109.8800469 414.216000
   4192   4203   4205     1   109.8800469 414.216000
   4193   4196   4197     1   109.8000471 387.438400
   4193   4196   4198     1   109.8000471 387.438400
   4194   4193   4196     1   109.5600471 388.275200
   4194   4193   4195     1   108.4600466 328.025600
   4195   4193   4196     1   109.5600471 388.275200
   4197   4196   4199     1   108.7700466 392.459200
   4197   4196   4198     1   107.5800459 329.699200
   4198   4196   4199     1   108.7700466 392.459200
   4199   4201   4202     1   106.5500460 417.563200
   4203   4206   4207     1   109.8000471 387.438400
   4203   4206   4208     1   109.8000471 387.438400
   4204   4203   4206     1   109.5600471 388.275200
   4204   4203   4205     1   108.4600466 328.025600
   4205   4203   4206     1   109.5600471 388.275200
   4207   4206   4209     1   108.7700466 392.459200
   4207   4206   4208     1   107.5800459 329.699200
   4208   4206   4209     1   108.7700466 392.459200
   4209   4211   4212     1   106.5500460 417.563200
   4214   4217   4218     1   109.8000471 387.438400
   4214   4217   4219     1   109.8000471 387.438400
   4215   4214   4217     1   109.5600471 388.275200
   4215   4214   4244     1   109.7800468 425.094400
   4215   4214   4216     1   108.4600466 328.025600
   4216   4214   4217     1   109.5600471 388.275200
   4216   4214   4244     1   109.7800468 425.094400
   4217   4220   4221     1   109.5600471 388.275200
   4217   4220   4222     1   109.5600471 388.275200
   4218   4217   4220     1   109.8000471 387.438400
   4218   4217   4219     1   107.5800459 329.699200
   4219   4217   4220     1   109.8000471 387.438400
   4221   4220   4223     1   109.8800469 414.216000
   4221   4220   4222     1   108.4600466 328.025600
   4222   4220   4223     1   109.8800469 414.216000
   4223   4224   4225     1   109.8800469 414.216000
   4223   4224   4226     1   109.8800469 414.216000
   4223   4234   4235     1   109.8800469 414.216000
   4223   4234   4236     1   109.8800469 414.216000
   4224   4227   4228     1   109.8000471 387.438400
   4224   4227   4229     1   109.8000471 387.438400
   4225   4224   4227     1   109.5600471 388.275200
   4225   4224   4226     1   108.4600466 328.025600
   4226   4224   4227     1   109.5600471 388.275200
   4228   4227   4230     1   108.7700466 392.459200
   4228   4227   4229     1   107.5800459 329.699200
   4229   4227   4230     1   108.7700466 392.459200
   4230   4232   4233     1   106.5500460 417.563200
   4234   4237   4238     1   109.8000471 387.438400
   4234   4237   4239     1   109.8000471 387.438400
   4235   4234   4237     1   109.5600471 388.275200
   4235   4234   4236     1   108.4600466 328.025600
   4236   4234   4237     1   109.5600471 388.275200
   4238   4237   4240     1   108.7700466 392.459200
   4238   4237   4239     1   107.5800459 329.699200
   4239   4237   4240     1   108.7700466 392.459200
   4240   4242   4243     1   106.5500460 417.563200
   4245   4248   4249     1   109.8000471 387.438400
   4245   4248   4250     1   109.8000471 387.438400
   4246   4245   4248     1   109.5600471 388.275200
   4246   4245   4275     1   109.7800468 425.094400
   4246   4245   4247     1   108.4600466 328.025600
   4247   4245   4248     1   109.5600471 388.275200
   4247   4245   4275     1   109.7800468 425.094400
   4248   4251   4252     1   109.5600471 388.275200
   4248   4251   4253     1   109.5600471 388.275200
   4249   4248   4251     1   109.8000471 387.438400
   4249   4248   4250     1   107.5800459 329.699200
   4250   4248   4251     1   109.8000471 387.438400
   4252   4251   4254     1   109.8800469 414.216000
   4252   4251   4253     1   108.4600466 328.025600
   4253   4251   4254     1   109.8800469 414.216000
   4254   4255   4256     1   109.8800469 414.216000
   4254   4255   4257     1   109.8800469 414.216000
   4254   4265   4266     1   109.8800469 414.216000
   4254   4265   4267     1   109.8800469 414.216000
   4255   4258   4259     1   109.8000471 387.438400
   4255   4258   4260     1   109.8000471 387.438400
   4256   4255   4258     1   109.5600471 388.275200
   4256   4255   4257     1   108.4600466 328.025600
   4257   4255   4258     1   109.5600471 388.275200
   4259   4258   4261     1   108.7700466 392.459200
   4259   4258   4260     1   107.5800459 329.699200
   4260   4258   4261     1   108.7700466 392.459200
   4261   4263   4264     1   106.5500460 417.563200
   4265   4268   4269     1   109.8000471 387.438400
   4265   4268   4270     1   109.8000471 387.438400
   4266   4265   4268     1   109.5600471 388.275200
   4266   4265   4267     1   108.4600466 328.025600
   4267   4265   4268     1   109.5600471 388.275200
   4269   4268   4271     1   108.7700466 392.459200
   4269   4268   4270     1   107.5800459 329.699200
   4270   4268   4271     1   108.7700466 392.459200
   4271   4273   4274     1   106.5500460 417.563200
   4276   4279   4280     1   109.8000471 387.438400
   4276   4279   4281     1   109.8000471 387.438400
   4277   4276   4279     1   109.5600471 388.275200
   4277   4276   4306     1   109.7800468 425.094400
   4277   4276   4278     1   108.4600466 328.025600
   4278   4276   4279     1   109.5600471 388.275200
   4278   4276   4306     1   109.7800468 425.094400
   4279   4282   4283     1   109.5600471 388.275200
   4279   4282   4284     1   109.5600471 388.275200
   4280   4279   4282     1   109.8000471 387.438400
   4280   4279   4281     1   107.5800459 329.699200
   4281   4279   4282     1   109.8000471 387.438400
   4283   4282   4285     1   109.8800469 414.216000
   4283   4282   4284     1   108.4600466 328.025600
   4284   4282   4285     1   109.8800469 414.216000
   4285   4286   4287     1   109.8800469 414.216000
   4285   4286   4288     1   109.8800469 414.216000
   4285   4296   4297     1   109.8800469 414.216000
   4285   4296   4298     1   109.8800469 414.216000
   4286   4289   4290     1   109.8000471 387.438400
   4286   4289   4291     1   109.8000471 387.438400
   4287   4286   4289     1   109.5600471 388.275200
   4287   4286   4288     1   108.4600466 328.025600
   4288   4286   4289     1   109.5600471 388.275200
   4290   4289   4292     1   108.7700466 392.459200
   4290   4289   4291     1   107.5800459 329.699200
   4291   4289   4292     1   108.7700466 392.459200
   4292   4294   4295     1   106.5500460 417.563200
   4296   4299   4300     1   109.8000471 387.438400
   4296   4299   4301     1   109.8000471 387.438400
   4297   4296   4299     1   109.5600471 388.275200
   4297   4296   4298     1   108.4600466 328.025600
   4298   4296   4299     1   109.5600471 388.275200
   4300   4299   4302     1   108.7700466 392.459200
   4300   4299   4301     1   107.5800459 329.699200
   4301   4299   4302     1   108.7700466 392.459200
   4302   4304   4305     1   106.5500460 417.563200
   4307   4310   4311     1   109.8000471 387.438400
   4307   4310   4312     1   109.8000471 387.438400
   4308   4307   4310     1   109.5600471 388.275200
   4308   4307   4337     1   109.7800468 425.094400
   4308   4307   4309     1   108.4600466 328.025600
   4309   4307   4310     1   109.5600471 388.275200
   4309   4307   4337     1   109.7800468 425.094400
   4310   4313   4314     1   109.5600471 388.275200
   4310   4313   4315     1   109.5600471 388.275200
   4311   4310   4313     1   109.8000471 387.438400
   4311   4310   4312     1   107.5800459 329.699200
   4312   4310   4313     1   109.8000471 387.438400
   4314   4313   4316     1   109.8800469 414.216000
   4314   4313   4315     1   108.4600466 328.025600
   4315   4313   4316     1   109.8800469 414.216000
   4316   4317   4318     1   109.8800469 414.216000
   4316   4317   4319     1   109.8800469 414.216000
   4316   4327   4328     1   109.8800469 414.216000
   4316   4327   4329     1   109.8800469 414.216000
   4317   4320   4321     1   109.8000471 387.438400
   4317   4320   4322     1   109.8000471 387.438400
   4318   4317   4320     1   109.5600471 388.275200
   4318   4317   4319     1   108.4600466 328.025600
   4319   4317   4320     1   109.5600471 388.275200
   4321   4320   4323     1   108.7700466 392.459200
   4321   4320   4322     1   107.5800459 329.699200
   4322   4320   4323     1   108.7700466 392.459200
   4323   4325   4326     1   106.5500460 417.563200
   4327   4330   4331     1   109.8000471 387.438400
   4327   4330   4332     1   109.8000471 387.438400
   4328   4327   4330     1   109.5600471 388.275200
   4328   4327   4329     1   108.4600466 328.025600
   4329   4327   4330     1   109.5600471 388.275200
   4331   4330   4333     1   108.7700466 392.459200
   4331   4330   4332     1   107.5800459 329.699200
   4332   4330   4333     1   108.7700466 392.459200
   4333   4335   4336     1   106.5500460 417.563200
   4338   4341   4342     1   109.8000471 387.438400
   4338   4341   4343     1   109.8000471 387.438400
   4339   4338   4341     1   109.5600471 388.275200
   4339   4338   4368     1   109.7800468 425.094400
   4339   4338   4340     1   108.4600466 328.025600
   4340   4338   4341     1   109.5600471 388.275200
   4340   4338   4368     1   109.7800468 425.094400
   4341   4344   4345     1   109.5600471 388.275200
   4341   4344   4346     1   109.5600471 388.275200
   4342   4341   4344     1   109.8000471 387.438400
   4342   4341   4343     1   107.5800459 329.699200
   4343   4341   4344     1   109.8000471 387.438400
   4345   4344   4347     1   109.8800469 414.216000
   4345   4344   4346     1   108.4600466 328.025600
   4346   4344   4347     1   109.8800469 414.216000
   4347   4348   4349     1   109.8800469 414.216000
   4347   4348   4350     1   109.8800469 414.216000
   4347   4358   4359     1   109.8800469 414.216000
   4347   4358   4360     1   109.8800469 414.216000
   4348   4351   4352     1   109.8000471 387.438400
   4348   4351   4353     1   109.8000471 387.438400
   4349   4348   4351     1   109.5600471 388.275200
   4349   4348   4350     1   108.4600466 328.025600
   4350   4348   4351     1   109.5600471 388.275200
   4352   4351   4354     1   108.7700466 392.459200
   4352   4351   4353     1   107.5800459 329.699200
   4353   4351   4354     1   108.7700466 392.459200
   4354   4356   4357     1   106.5500460 417.563200
   4358   4361   4362     1   109.8000471 387.438400
   4358   4361   4363     1   109.8000471 387.438400
   4359   4358   4361     1   109.5600471 388.275200
   4359   4358   4360     1   108.4600466 328.025600
   4360   4358   4361     1   109.5600471 388.275200
   4362   4361   4364     1   108.7700466 392.459200
   4362   4361   4363     1   107.5800459 329.699200
   4363   4361   4364     1   108.7700466 392.459200
   4364   4366   4367     1   106.5500460 417.563200
   4369   4372   4373     1   109.8000471 387.438400
   4369   4372   4374     1   109.8000471 387.438400
   4370   4369   4372     1   109.5600471 388.275200
   4370   4369   4399     1   109.7800468 425.094400
   4370   4369   4371     1   108.4600466 328.025600
   4371   4369   4372     1   109.5600471 388.275200
   4371   4369   4399     1   109.7800468 425.094400
   4372   4375   4376     1   109.5600471 388.275200
   4372   4375   4377     1   109.5600471 388.275200
   4373   4372   4375     1   109.8000471 387.438400
   4373   4372   4374     1   107.5800459 329.699200
   4374   4372   4375     1   109.8000471 387.438400
   4376   4375   4378     1   109.8800469 414.216000
   4376   4375   4377     1   108.4600466 328.025600
   4377   4375   4378     1   109.8800469 414.216000
   4378   4379   4380     1   109.8800469 414.216000
   4378   4379   4381     1   109.8800469 414.216000
   4378   4389   4390     1   109.8800469 414.216000
   4378   4389   4391     1   109.8800469 414.216000
   4379   4382   4383     1   109.8000471 387.438400
   4379   4382   4384     1   109.8000471 387.438400
   4380   4379   4382     1   109.5600471 388.275200
   4380   4379   4381     1   108.4600466 328.025600
   4381   4379   4382     1   109.5600471 388.275200
   4383   4382   4385     1   108.7700466 392.459200
   4383   4382   4384     1   107.5800459 329.699200
   4384   4382   4385     1   108.7700466 392.459200
   4385   4387   4388     1   106.5500460 417.563200
   4389   4392   4393     1   109.8000471 387.438400
   4389   4392   4394     1   109.8000471 387.438400
   4390   4389   4392     1   109.5600471 388.275200
   4390   4389   4391     1   108.4600466 328.025600
   4391   4389   4392     1   109.5600471 388.275200
   4393   4392   4395     1   108.7700466 392.459200
   4393   4392   4394     1   107.5800459 329.699200
   4394   4392   4395     1   108.7700466 392.459200
   4395   4397   4398     1   106.5500460 417.563200
   4400   4403   4404     1   109.8000471 387.438400
   4400   4403   4405     1   109.8000471 387.438400
   4401   4400   4403     1   109.5600471 388.275200
   4401   4400   4430     1   109.7800468 425.094400
   4401   4400   4402     1   108.4600466 328.025600
   4402   4400   4403     1   109.5600471 388.275200
   4402   4400   4430     1   109.7800468 425.094400
   4403   4406   4407     1   109.5600471 388.275200
   4403   4406   4408     1   109.5600471 388.275200
   4404   4403   4406     1   109.8000471 387.438400
   4404   4403   4405     1   107.5800459 329.699200
   4405   4403   4406     1   109.8000471 387.438400
   4407   4406   4409     1   109.8800469 414.216000
   4407   4406   4408     1   108.4600466 328.025600
   4408   4406   4409     1   109.8800469 414.216000
   4409   4410   4411     1   109.8800469 414.216000
   4409   4410   4412     1   109.8800469 414.216000
   4409   4420   4421     1   109.8800469 414.216000
   4409   4420   4422     1   109.8800469 414.216000
   4410   4413   4414     1   109.8000471 387.438400
   4410   4413   4415     1   109.8000471 387.438400
   4411   4410   4413     1   109.5600471 388.275200
   4411   4410   4412     1   108.4600466 328.025600
   4412   4410   4413     1   109.5600471 388.275200
   4414   4413   4416     1   108.7700466 392.459200
   4414   4413   4415     1   107.5800459 329.699200
   4415   4413   4416     1   108.7700466 392.459200
   4416   4418   4419     1   106.5500460 417.563200
   4420   4423   4424     1   109.8000471 387.438400
   4420   4423   4425     1   109.8000471 387.438400
   4421   4420   4423     1   109.5600471 388.275200
   4421   4420   4422     1   108.4600466 328.025600
   4422   4420   4423     1   109.5600471 388.275200
   4424   4423   4426     1   108.7700466 392.459200
   4424   4423   4425     1   107.5800459 329.699200
   4425   4423   4426     1   108.7700466 392.459200
   4426   4428   4429     1   106.5500460 417.563200
   4431   4434   4435     1   109.8000471 387.438400
   4431   4434   4436     1   109.8000471 387.438400
   4432   4431   4434     1   109.5600471 388.275200
   4432   4431   4461     1   109.7800468 425.094400
   4432   4431   4433     1   108.4600466 328.025600
   4433   4431   4434     1   109.5600471 388.275200
   4433   4431   4461     1   109.7800468 425.094400
   4434   4437   4438     1   109.5600471 388.275200
   4434   4437   4439     1   109.5600471 388.275200
   4435   4434   4437     1   109.8000471 387.438400
   4435   4434   4436     1   107.5800459 329.699200
   4436   4434   4437     1   109.8000471 387.438400
   4438   4437   4440     1   109.8800469 414.216000
   4438   4437   4439     1   108.4600466 328.025600
   4439   4437   4440     1   109.8800469 414.216000
   4440   4441   4442     1   109.8800469 414.216000
   4440   4441   4443     1   109.8800469 414.216000
   4440   4451   4452     1   109.8800469 414.216000
   4440   4451   4453     1   109.8800469 414.216000
   4441   4444   4445     1   109.8000471 387.438400
   4441   4444   4446     1   109.8000471 387.438400
   4442   4441   4444     1   109.5600471 388.275200
   4442   4441   4443     1   108.4600466 328.025600
   4443   4441   4444     1   109.5600471 388.275200
   4445   4444   4447     1   108.7700466 392.459200
   4445   4444   4446     1   107.5800459 329.699200
   4446   4444   4447     1   108.7700466 392.459200
   4447   4449   4450     1   106.5500460 417.563200
   4451   4454   4455     1   109.8000471 387.438400
   4451   4454   4456     1   109.8000471 387.438400
   4452   4451   4454     1   109.5600471 388.275200
   4452   4451   4453     1   108.4600466 328.025600
   4453   4451   4454     1   109.5600471 388.275200
   4455   4454   4457     1   108.7700466 392.459200
   4455   4454   4456     1   107.5800459 329.699200
   4456   4454   4457     1   108.7700466 392.459200
   4457   4459   4460     1   106.5500460 417.563200
   4462   4465   4466     1   109.8000471 387.438400
   4462   4465   4467     1   109.8000471 387.438400
   4463   4462   4465     1   109.5600471 388.275200
   4463   4462   4492     1   109.7800468 425.094400
   4463   4462   4464     1   108.4600466 328.025600
   4464   4462   4465     1   109.5600471 388.275200
   4464   4462   4492     1   109.7800468 425.094400
   4465   4468   4469     1   109.5600471 388.275200
   4465   4468   4470     1   109.5600471 388.275200
   4466   4465   4468     1   109.8000471 387.438400
   4466   4465   4467     1   107.5800459 329.699200
   4467   4465   4468     1   109.8000471 387.438400
   4469   4468   4471     1   109.8800469 414.216000
   4469   4468   4470     1   108.4600466 328.025600
   4470   4468   4471     1   109.8800469 414.216000
   4471   4472   4473     1   109.8800469 414.216000
   4471   4472   4474     1   109.8800469 414.216000
   4471   4482   4483     1   109.8800469 414.216000
   4471   4482   4484     1   109.8800469 414.216000
   4472   4475   4476     1   109.8000471 387.438400
   4472   4475   4477     1   109.8000471 387.438400
   4473   4472   4475     1   109.5600471 388.275200
   4473   4472   4474     1   108.4600466 328.025600
   4474   4472   4475     1   109.5600471 388.275200
   4476   4475   4478     1   108.7700466 392.459200
   4476   4475   4477     1   107.5800459 329.699200
   4477   4475   4478     1   108.7700466 392.459200
   4478   4480   4481     1   106.5500460 417.563200
   4482   4485   4486     1   109.8000471 387.438400
   4482   4485   4487     1   109.8000471 387.438400
   4483   4482   4485     1   109.5600471 388.275200
   4483   4482   4484     1   108.4600466 328.025600
   4484   4482   4485     1   109.5600471 388.275200
   4486   4485   4488     1   108.7700466 392.459200
   4486   4485   4487     1   107.5800459 329.699200
   4487   4485   4488     1   108.7700466 392.459200
   4488   4490   4491     1   106.5500460 417.563200
   4493   4496   4497     1   109.8000471 387.438400
   4493   4496   4498     1   109.8000471 387.438400
   4494   4493   4496     1   109.5600471 388.275200
   4494   4493   4523     1   109.7800468 425.094400
   4494   4493   4495     1   108.4600466 328.025600
   4495   4493   4496     1   109.5600471 388.275200
   4495   4493   4523     1   109.7800468 425.094400
   4496   4499   4500     1   109.5600471 388.275200
   4496   4499   4501     1   109.5600471 388.275200
   4497   4496   4499     1   109.8000471 387.438400
   4497   4496   4498     1   107.5800459 329.699200
   4498   4496   4499     1   109.8000471 387.438400
   4500   4499   4502     1   109.8800469 414.216000
   4500   4499   4501     1   108.4600466 328.025600
   4501   4499   4502     1   109.8800469 414.216000
   4502   4503   4504     1   109.8800469 414.216000
   4502   4503   4505     1   109.8800469 414.216000
   4502   4513   4514     1   109.8800469 414.216000
   4502   4513   4515     1   109.8800469 414.216000
   4503   4506   4507     1   109.8000471 387.438400
   4503   4506   4508     1   109.8000471 387.438400
   4504   4503   4506     1   109.5600471 388.275200
   4504   4503   4505     1   108.4600466 328.025600
   4505   4503   4506     1   109.5600471 388.275200
   4507   4506   4509     1   108.7700466 392.459200
   4507   4506   4508     1   107.5800459 329.699200
   4508   4506   4509     1   108.7700466 392.459200
   4509   4511   4512     1   106.5500460 417.563200
   4513   4516   4517     1   109.8000471 387.438400
   4513   4516   4518     1   109.8000471 387.438400
   4514   4513   4516     1   109.5600471 388.275200
   4514   4513   4515     1   108.4600466 328.025600
   4515   4513   4516     1   109.5600471 388.275200
   4517   4516   4519     1   108.7700466 392.459200
   4517   4516   4518     1   107.5800459 329.699200
   4518   4516   4519     1   108.7700466 392.459200
   4519   4521   4522     1   106.5500460 417.563200
   4524   4527   4528     1   109.8000471 387.438400
   4524   4527   4529     1   109.8000471 387.438400
   4525   4524   4527     1   109.5600471 388.275200
   4525   4524   4554     1   109.7800468 425.094400
   4525   4524   4526     1   108.4600466 328.025600
   4526   4524   4527     1   109.5600471 388.275200
   4526   4524   4554     1   109.7800468 425.094400
   4527   4530   4531     1   109.5600471 388.275200
   4527   4530   4532     1   109.5600471 388.275200
   4528   4527   4530     1   109.8000471 387.438400
   4528   4527   4529     1   107.5800459 329.699200
   4529   4527   4530     1   109.8000471 387.438400
   4531   4530   4533     1   109.8800469 414.216000
   4531   4530   4532     1   108.4600466 328.025600
   4532   4530   4533     1   109.8800469 414.216000
   4533   4534   4535     1   109.8800469 414.216000
   4533   4534   4536     1   109.8800469 414.216000
   4533   4544   4545     1   109.8800469 414.216000
   4533   4544   4546     1   109.8800469 414.216000
   4534   4537   4538     1   109.8000471 387.438400
   4534   4537   4539     1   109.8000471 387.438400
   4535   4534   4537     1   109.5600471 388.275200
   4535   4534   4536     1   108.4600466 328.025600
   4536   4534   4537     1   109.5600471 388.275200
   4538   4537   4540     1   108.7700466 392.459200
   4538   4537   4539     1   107.5800459 329.699200
   4539   4537   4540     1   108.7700466 392.459200
   4540   4542   4543     1   106.5500460 417.563200
   4544   4547   4548     1   109.8000471 387.438400
   4544   4547   4549     1   109.8000471 387.438400
   4545   4544   4547     1   109.5600471 388.275200
   4545   4544   4546     1   108.4600466 328.025600
   4546   4544   4547     1   109.5600471 388.275200
   4548   4547   4550     1   108.7700466 392.459200
   4548   4547   4549     1   107.5800459 329.699200
   4549   4547   4550     1   108.7700466 392.459200
   4550   4552   4553     1   106.5500460 417.563200
   4555   4558   4559     1   109.8000471 387.438400
   4555   4558   4560     1   109.8000471 387.438400
   4556   4555   4558     1   109.5600471 388.275200
   4556   4555   4585     1   109.7800468 425.094400
   4556   4555   4557     1   108.4600466 328.025600
   4557   4555   4558     1   109.5600471 388.275200
   4557   4555   4585     1   109.7800468 425.094400
   4558   4561   4562     1   109.5600471 388.275200
   4558   4561   4563     1   109.5600471 388.275200
   4559   4558   4561     1   109.8000471 387.438400
   4559   4558   4560     1   107.5800459 329.699200
   4560   4558   4561     1   109.8000471 387.438400
   4562   4561   4564     1   109.8800469 414.216000
   4562   4561   4563     1   108.4600466 328.025600
   4563   4561   4564     1   109.8800469 414.216000
   4564   4565   4566     1   109.8800469 414.216000
   4564   4565   4567     1   109.8800469 414.216000
   4564   4575   4576     1   109.8800469 414.216000
   4564   4575   4577     1   109.8800469 414.216000
   4565   4568   4569     1   109.8000471 387.438400
   4565   4568   4570     1   109.8000471 387.438400
   4566   4565   4568     1   109.5600471 388.275200
   4566   4565   4567     1   108.4600466 328.025600
   4567   4565   4568     1   109.5600471 388.275200
   4569   4568   4571     1   108.7700466 392.459200
   4569   4568   4570     1   107.5800459 329.699200
   4570   4568   4571     1   108.7700466 392.459200
   4571   4573   4574     1   106.5500460 417.563200
   4575   4578   4579     1   109.8000471 387.438400
   4575   4578   4580     1   109.8000471 387.438400
   4576   4575   4578     1   109.5600471 388.275200
   4576   4575   4577     1   108.4600466 328.025600
   4577   4575   4578     1   109.5600471 388.275200
   4579   4578   4581     1   108.7700466 392.459200
   4579   4578   4580     1   107.5800459 329.699200
   4580   4578   4581     1   108.7700466 392.459200
   4581   4583   4584     1   106.5500460 417.563200
   4586   4589   4590     1   109.8000471 387.438400
   4586   4589   4591     1   109.8000471 387.438400
   4587   4586   4589     1   109.5600471 388.275200
   4587   4586   4616     1   109.7800468 425.094400
   4587   4586   4588     1   108.4600466 328.025600
   4588   4586   4589     1   109.5600471 388.275200
   4588   4586   4616     1   109.7800468 425.094400
   4589   4592   4593     1   109.5600471 388.275200
   4589   4592   4594     1   109.5600471 388.275200
   4590   4589   4592     1   109.8000471 387.438400
   4590   4589   4591     1   107.5800459 329.699200
   4591   4589   4592     1   109.8000471 387.438400
   4593   4592   4595     1   109.8800469 414.216000
   4593   4592   4594     1   108.4600466 328.025600
   4594   4592   4595     1   109.8800469 414.216000
   4595   4596   4597     1   109.8800469 414.216000
   4595   4596   4598     1   109.8800469 414.216000
   4595   4606   4607     1   109.8800469 414.216000
   4595   4606   4608     1   109.8800469 414.216000
   4596   4599   4600     1   109.8000471 387.438400
   4596   4599   4601     1   109.8000471 387.438400
   4597   4596   4599     1   109.5600471 388.275200
   4597   4596   4598     1   108.4600466 328.025600
   4598   4596   4599     1   109.5600471 388.275200
   4600   4599   4602     1   108.7700466 392.459200
   4600   4599   4601     1   107.5800459 329.699200
   4601   4599   4602     1   108.7700466 392.459200
   4602   4604   4605     1   106.5500460 417.563200
   4606   4609   4610     1   109.8000471 387.438400
   4606   4609   4611     1   109.8000471 387.438400
   4607   4606   4609     1   109.5600471 388.275200
   4607   4606   4608     1   108.4600466 328.025600
   4608   4606   4609     1   109.5600471 388.275200
   4610   4609   4612     1   108.7700466 392.459200
   4610   4609   4611     1   107.5800459 329.699200
   4611   4609   4612     1   108.7700466 392.459200
   4612   4614   4615     1   106.5500460 417.563200
   4617   4620   4621     1   109.8000471 387.438400
   4617   4620   4622     1   109.8000471 387.438400
   4618   4617   4620     1   109.5600471 388.275200
   4618   4617   4647     1   109.7800468 425.094400
   4618   4617   4619     1   108.4600466 328.025600
   4619   4617   4620     1   109.5600471 388.275200
   4619   4617   4647     1   109.7800468 425.094400
   4620   4623   4624     1   109.5600471 388.275200
   4620   4623   4625     1   109.5600471 388.275200
   4621   4620   4623     1   109.8000471 387.438400
   4621   4620   4622     1   107.5800459 329.699200
   4622   4620   4623     1   109.8000471 387.438400
   4624   4623   4626     1   109.8800469 414.216000
   4624   4623   4625     1   108.4600466 328.025600
   4625   4623   4626     1   109.8800469 414.216000
   4626   4627   4628     1   109.8800469 414.216000
   4626   4627   4629     1   109.8800469 414.216000
   4626   4637   4638     1   109.8800469 414.216000
   4626   4637   4639     1   109.8800469 414.216000
   4627   4630   4631     1   109.8000471 387.438400
   4627   4630   4632     1   109.8000471 387.438400
   4628   4627   4630     1   109.5600471 388.275200
   4628   4627   4629     1   108.4600466 328.025600
   4629   4627   4630     1   109.5600471 388.275200
   4631   4630   4633     1   108.7700466 392.459200
   4631   4630   4632     1   107.5800459 329.699200
   4632   4630   4633     1   108.7700466 392.459200
   4633   4635   4636     1   106.5500460 417.563200
   4637   4640   4641     1   109.8000471 387.438400
   4637   4640   4642     1   109.8000471 387.438400
   4638   4637   4640     1   109.5600471 388.275200
   4638   4637   4639     1   108.4600466 328.025600
   4639   4637   4640     1   109.5600471 388.275200
   4641   4640   4643     1   108.7700466 392.459200
   4641   4640   4642     1   107.5800459 329.699200
   4642   4640   4643     1   108.7700466 392.459200
   4643   4645   4646     1   106.5500460 417.563200
   4648   4651   4652     1   109.8000471 387.438400
   4648   4651   4653     1   109.8000471 387.438400
   4649   4648   4651     1   109.5600471 388.275200
   4649   4648   4678     1   109.7800468 425.094400
   4649   4648   4650     1   108.4600466 328.025600
   4650   4648   4651     1   109.5600471 388.275200
   4650   4648   4678     1   109.7800468 425.094400
   4651   4654   4655     1   109.5600471 388.275200
   4651   4654   4656     1   109.5600471 388.275200
   4652   4651   4654     1   109.8000471 387.438400
   4652   4651   4653     1   107.5800459 329.699200
   4653   4651   4654     1   109.8000471 387.438400
   4655   4654   4657     1   109.8800469 414.216000
   4655   4654   4656     1   108.4600466 328.025600
   4656   4654   4657     1   109.8800469 414.216000
   4657   4658   4659     1   109.8800469 414.216000
   4657   4658   4660     1   109.8800469 414.216000
   4657   4668   4669     1   109.8800469 414.216000
   4657   4668   4670     1   109.8800469 414.216000
   4658   4661   4662     1   109.8000471 387.438400
   4658   4661   4663     1   109.8000471 387.438400
   4659   4658   4661     1   109.5600471 388.275200
   4659   4658   4660     1   108.4600466 328.025600
   4660   4658   4661     1   109.5600471 388.275200
   4662   4661   4664     1   108.7700466 392.459200
   4662   4661   4663     1   107.5800459 329.699200
   4663   4661   4664     1   108.7700466 392.459200
   4664   4666   4667     1   106.5500460 417.563200
   4668   4671   4672     1   109.8000471 387.438400
   4668   4671   4673     1   109.8000471 387.438400
   4669   4668   4671     1   109.5600471 388.275200
   4669   4668   4670     1   108.4600466 328.025600
   4670   4668   4671     1   109.5600471 388.275200
   4672   4671   4674     1   108.7700466 392.459200
   4672   4671   4673     1   107.5800459 329.699200
   4673   4671   4674     1   108.7700466 392.459200
   4674   4676   4677     1   106.5500460 417.563200
   4679   4682   4683     1   109.8000471 387.438400
   4679   4682   4684     1   109.8000471 387.438400
   4680   4679   4682     1   109.5600471 388.275200
   4680   4679   4709     1   109.7800468 425.094400
   4680   4679   4681     1   108.4600466 328.025600
   4681   4679   4682     1   109.5600471 388.275200
   4681   4679   4709     1   109.7800468 425.094400
   4682   4685   4686     1   109.5600471 388.275200
   4682   4685   4687     1   109.5600471 388.275200
   4683   4682   4685     1   109.8000471 387.438400
   4683   4682   4684     1   107.5800459 329.699200
   4684   4682   4685     1   109.8000471 387.438400
   4686   4685   4688     1   109.8800469 414.216000
   4686   4685   4687     1   108.4600466 328.025600
   4687   4685   4688     1   109.8800469 414.216000
   4688   4689   4690     1   109.8800469 414.216000
   4688   4689   4691     1   109.8800469 414.216000
   4688   4699   4700     1   109.8800469 414.216000
   4688   4699   4701     1   109.8800469 414.216000
   4689   4692   4693     1   109.8000471 387.438400
   4689   4692   4694     1   109.8000471 387.438400
   4690   4689   4692     1   109.5600471 388.275200
   4690   4689   4691     1   108.4600466 328.025600
   4691   4689   4692     1   109.5600471 388.275200
   4693   4692   4695     1   108.7700466 392.459200
   4693   4692   4694     1   107.5800459 329.699200
   4694   4692   4695     1   108.7700466 392.459200
   4695   4697   4698     1   106.5500460 417.563200
   4699   4702   4703     1   109.8000471 387.438400
   4699   4702   4704     1   109.8000471 387.438400
   4700   4699   4702     1   109.5600471 388.275200
   4700   4699   4701     1   108.4600466 328.025600
   4701   4699   4702     1   109.5600471 388.275200
   4703   4702   4705     1   108.7700466 392.459200
   4703   4702   4704     1   107.5800459 329.699200
   4704   4702   4705     1   108.7700466 392.459200
   4705   4707   4708     1   106.5500460 417.563200
   4710   4713   4714     1   109.8000471 387.438400
   4710   4713   4715     1   109.8000471 387.438400
   4711   4710   4713     1   109.5600471 388.275200
   4711   4710   4740     1   109.7800468 425.094400
   4711   4710   4712     1   108.4600466 328.025600
   4712   4710   4713     1   109.5600471 388.275200
   4712   4710   4740     1   109.7800468 425.094400
   4713   4716   4717     1   109.5600471 388.275200
   4713   4716   4718     1   109.5600471 388.275200
   4714   4713   4716     1   109.8000471 387.438400
   4714   4713   4715     1   107.5800459 329.699200
   4715   4713   4716     1   109.8000471 387.438400
   4717   4716   4719     1   109.8800469 414.216000
   4717   4716   4718     1   108.4600466 328.025600
   4718   4716   4719     1   109.8800469 414.216000
   4719   4720   4721     1   109.8800469 414.216000
   4719   4720   4722     1   109.8800469 414.216000
   4719   4730   4731     1   109.8800469 414.216000
   4719   4730   4732     1   109.8800469 414.216000
   4720   4723   4724     1   109.8000471 387.438400
   4720   4723   4725     1   109.8000471 387.438400
   4721   4720   4723     1   109.5600471 388.275200
   4721   4720   4722     1   108.4600466 328.025600
   4722   4720   4723     1   109.5600471 388.275200
   4724   4723   4726     1   108.7700466 392.459200
   4724   4723   4725     1   107.5800459 329.699200
   4725   4723   4726     1   108.7700466 392.459200
   4726   4728   4729     1   106.5500460 417.563200
   4730   4733   4734     1   109.8000471 387.438400
   4730   4733   4735     1   109.8000471 387.438400
   4731   4730   4733     1   109.5600471 388.275200
   4731   4730   4732     1   108.4600466 328.025600
   4732   4730   4733     1   109.5600471 388.275200
   4734   4733   4736     1   108.7700466 392.459200
   4734   4733   4735     1   107.5800459 329.699200
   4735   4733   4736     1   108.7700466 392.459200
   4736   4738   4739     1   106.5500460 417.563200
   4741   4744   4745     1   109.8000471 387.438400
   4741   4744   4746     1   109.8000471 387.438400
   4742   4741   4744     1   109.5600471 388.275200
   4742   4741   4771     1   109.7800468 425.094400
   4742   4741   4743     1   108.4600466 328.025600
   4743   4741   4744     1   109.5600471 388.275200
   4743   4741   4771     1   109.7800468 425.094400
   4744   4747   4748     1   109.5600471 388.275200
   4744   4747   4749     1   109.5600471 388.275200
   4745   4744   4747     1   109.8000471 387.438400
   4745   4744   4746     1   107.5800459 329.699200
   4746   4744   4747     1   109.8000471 387.438400
   4748   4747   4750     1   109.8800469 414.216000
   4748   4747   4749     1   108.4600466 328.025600
   4749   4747   4750     1   109.8800469 414.216000
   4750   4751   4752     1   109.8800469 414.216000
   4750   4751   4753     1   109.8800469 414.216000
   4750   4761   4762     1   109.8800469 414.216000
   4750   4761   4763     1   109.8800469 414.216000
   4751   4754   4755     1   109.8000471 387.438400
   4751   4754   4756     1   109.8000471 387.438400
   4752   4751   4754     1   109.5600471 388.275200
   4752   4751   4753     1   108.4600466 328.025600
   4753   4751   4754     1   109.5600471 388.275200
   4755   4754   4757     1   108.7700466 392.459200
   4755   4754   4756     1   107.5800459 329.699200
   4756   4754   4757     1   108.7700466 392.459200
   4757   4759   4760     1   106.5500460 417.563200
   4761   4764   4765     1   109.8000471 387.438400
   4761   4764   4766     1   109.8000471 387.438400
   4762   4761   4764     1   109.5600471 388.275200
   4762   4761   4763     1   108.4600466 328.025600
   4763   4761   4764     1   109.5600471 388.275200
   4765   4764   4767     1   108.7700466 392.459200
   4765   4764   4766     1   107.5800459 329.699200
   4766   4764   4767     1   108.7700466 392.459200
   4767   4769   4770     1   106.5500460 417.563200
   4772   4775   4776     1   109.8000471 387.438400
   4772   4775   4777     1   109.8000471 387.438400
   4773   4772   4775     1   109.5600471 388.275200
   4773   4772   4802     1   109.7800468 425.094400
   4773   4772   4774     1   108.4600466 328.025600
   4774   4772   4775     1   109.5600471 388.275200
   4774   4772   4802     1   109.7800468 425.094400
   4775   4778   4779     1   109.5600471 388.275200
   4775   4778   4780     1   109.5600471 388.275200
   4776   4775   4778     1   109.8000471 387.438400
   4776   4775   4777     1   107.5800459 329.699200
   4777   4775   4778     1   109.8000471 387.438400
   4779   4778   4781     1   109.8800469 414.216000
   4779   4778   4780     1   108.4600466 328.025600
   4780   4778   4781     1   109.8800469 414.216000
   4781   4782   4783     1   109.8800469 414.216000
   4781   4782   4784     1   109.8800469 414.216000
   4781   4792   4793     1   109.8800469 414.216000
   4781   4792   4794     1   109.8800469 414.216000
   4782   4785   4786     1   109.8000471 387.438400
   4782   4785   4787     1   109.8000471 387.438400
   4783   4782   4785     1   109.5600471 388.275200
   4783   4782   4784     1   108.4600466 328.025600
   4784   4782   4785     1   109.5600471 388.275200
   4786   4785   4788     1   108.7700466 392.459200
   4786   4785   4787     1   107.5800459 329.699200
   4787   4785   4788     1   108.7700466 392.459200
   4788   4790   4791     1   106.5500460 417.563200
   4792   4795   4796     1   109.8000471 387.438400
   4792   4795   4797     1   109.8000471 387.438400
   4793   4792   4795     1   109.5600471 388.275200
   4793   4792   4794     1   108.4600466 328.025600
   4794   4792   4795     1   109.5600471 388.275200
   4796   4795   4798     1   108.7700466 392.459200
   4796   4795   4797     1   107.5800459 329.699200
   4797   4795   4798     1   108.7700466 392.459200
   4798   4800   4801     1   106.5500460 417.563200
   4803   4806   4807     1   109.8000471 387.438400
   4803   4806   4808     1   109.8000471 387.438400
   4804   4803   4806     1   109.5600471 388.275200
   4804   4803   4833     1   109.7800468 425.094400
   4804   4803   4805     1   108.4600466 328.025600
   4805   4803   4806     1   109.5600471 388.275200
   4805   4803   4833     1   109.7800468 425.094400
   4806   4809   4810     1   109.5600471 388.275200
   4806   4809   4811     1   109.5600471 388.275200
   4807   4806   4809     1   109.8000471 387.438400
   4807   4806   4808     1   107.5800459 329.699200
   4808   4806   4809     1   109.8000471 387.438400
   4810   4809   4812     1   109.8800469 414.216000
   4810   4809   4811     1   108.4600466 328.025600
   4811   4809   4812     1   109.8800469 414.216000
   4812   4813   4814     1   109.8800469 414.216000
   4812   4813   4815     1   109.8800469 414.216000
   4812   4823   4824     1   109.8800469 414.216000
   4812   4823   4825     1   109.8800469 414.216000
   4813   4816   4817     1   109.8000471 387.438400
   4813   4816   4818     1   109.8000471 387.438400
   4814   4813   4816     1   109.5600471 388.275200
   4814   4813   4815     1   108.4600466 328.025600
   4815   4813   4816     1   109.5600471 388.275200
   4817   4816   4819     1   108.7700466 392.459200
   4817   4816   4818     1   107.5800459 329.699200
   4818   4816   4819     1   108.7700466 392.459200
   4819   4821   4822     1   106.5500460 417.563200
   4823   4826   4827     1   109.8000471 387.438400
   4823   4826   4828     1   109.8000471 387.438400
   4824   4823   4826     1   109.5600471 388.275200
   4824   4823   4825     1   108.4600466 328.025600
   4825   4823   4826     1   109.5600471 388.275200
   4827   4826   4829     1   108.7700466 392.459200
   4827   4826   4828     1   107.5800459 329.699200
   4828   4826   4829     1   108.7700466 392.459200
   4829   4831   4832     1   106.5500460 417.563200
   4834   4837   4838     1   109.8000471 387.438400
   4834   4837   4839     1   109.8000471 387.438400
   4835   4834   4837     1   109.5600471 388.275200
   4835   4834   4864     1   109.7800468 425.094400
   4835   4834   4836     1   108.4600466 328.025600
   4836   4834   4837     1   109.5600471 388.275200
   4836   4834   4864     1   109.7800468 425.094400
   4837   4840   4841     1   109.5600471 388.275200
   4837   4840   4842     1   109.5600471 388.275200
   4838   4837   4840     1   109.8000471 387.438400
   4838   4837   4839     1   107.5800459 329.699200
   4839   4837   4840     1   109.8000471 387.438400
   4841   4840   4843     1   109.8800469 414.216000
   4841   4840   4842     1   108.4600466 328.025600
   4842   4840   4843     1   109.8800469 414.216000
   4843   4844   4845     1   109.8800469 414.216000
   4843   4844   4846     1   109.8800469 414.216000
   4843   4854   4855     1   109.8800469 414.216000
   4843   4854   4856     1   109.8800469 414.216000
   4844   4847   4848     1   109.8000471 387.438400
   4844   4847   4849     1   109.8000471 387.438400
   4845   4844   4847     1   109.5600471 388.275200
   4845   4844   4846     1   108.4600466 328.025600
   4846   4844   4847     1   109.5600471 388.275200
   4848   4847   4850     1   108.7700466 392.459200
   4848   4847   4849     1   107.5800459 329.699200
   4849   4847   4850     1   108.7700466 392.459200
   4850   4852   4853     1   106.5500460 417.563200
   4854   4857   4858     1   109.8000471 387.438400
   4854   4857   4859     1   109.8000471 387.438400
   4855   4854   4857     1   109.5600471 388.275200
   4855   4854   4856     1   108.4600466 328.025600
   4856   4854   4857     1   109.5600471 388.275200
   4858   4857   4860     1   108.7700466 392.459200
   4858   4857   4859     1   107.5800459 329.699200
   4859   4857   4860     1   108.7700466 392.459200
   4860   4862   4863     1   106.5500460 417.563200
   4865   4868   4869     1   109.8000471 387.438400
   4865   4868   4870     1   109.8000471 387.438400
   4866   4865   4868     1   109.5600471 388.275200
   4866   4865   4895     1   109.7800468 425.094400
   4866   4865   4867     1   108.4600466 328.025600
   4867   4865   4868     1   109.5600471 388.275200
   4867   4865   4895     1   109.7800468 425.094400
   4868   4871   4872     1   109.5600471 388.275200
   4868   4871   4873     1   109.5600471 388.275200
   4869   4868   4871     1   109.8000471 387.438400
   4869   4868   4870     1   107.5800459 329.699200
   4870   4868   4871     1   109.8000471 387.438400
   4872   4871   4874     1   109.8800469 414.216000
   4872   4871   4873     1   108.4600466 328.025600
   4873   4871   4874     1   109.8800469 414.216000
   4874   4875   4876     1   109.8800469 414.216000
   4874   4875   4877     1   109.8800469 414.216000
   4874   4885   4886     1   109.8800469 414.216000
   4874   4885   4887     1   109.8800469 414.216000
   4875   4878   4879     1   109.8000471 387.438400
   4875   4878   4880     1   109.8000471 387.438400
   4876   4875   4878     1   109.5600471 388.275200
   4876   4875   4877     1   108.4600466 328.025600
   4877   4875   4878     1   109.5600471 388.275200
   4879   4878   4881     1   108.7700466 392.459200
   4879   4878   4880     1   107.5800459 329.699200
   4880   4878   4881     1   108.7700466 392.459200
   4881   4883   4884     1   106.5500460 417.563200
   4885   4888   4889     1   109.8000471 387.438400
   4885   4888   4890     1   109.8000471 387.438400
   4886   4885   4888     1   109.5600471 388.275200
   4886   4885   4887     1   108.4600466 328.025600
   4887   4885   4888     1   109.5600471 388.275200
   4889   4888   4891     1   108.7700466 392.459200
   4889   4888   4890     1   107.5800459 329.699200
   4890   4888   4891     1   108.7700466 392.459200
   4891   4893   4894     1   106.5500460 417.563200
   4896   4899   4900     1   109.8000471 387.438400
   4896   4899   4901     1   109.8000471 387.438400
   4897   4896   4899     1   109.5600471 388.275200
   4897   4896   4926     1   109.7800468 425.094400
   4897   4896   4898     1   108.4600466 328.025600
   4898   4896   4899     1   109.5600471 388.275200
   4898   4896   4926     1   109.7800468 425.094400
   4899   4902   4903     1   109.5600471 388.275200
   4899   4902   4904     1   109.5600471 388.275200
   4900   4899   4902     1   109.8000471 387.438400
   4900   4899   4901     1   107.5800459 329.699200
   4901   4899   4902     1   109.8000471 387.438400
   4903   4902   4905     1   109.8800469 414.216000
   4903   4902   4904     1   108.4600466 328.025600
   4904   4902   4905     1   109.8800469 414.216000
   4905   4906   4907     1   109.8800469 414.216000
   4905   4906   4908     1   109.8800469 414.216000
   4905   4916   4917     1   109.8800469 414.216000
   4905   4916   4918     1   109.8800469 414.216000
   4906   4909   4910     1   109.8000471 387.438400
   4906   4909   4911     1   109.8000471 387.438400
   4907   4906   4909     1   109.5600471 388.275200
   4907   4906   4908     1   108.4600466 328.025600
   4908   4906   4909     1   109.5600471 388.275200
   4910   4909   4912     1   108.7700466 392.459200
   4910   4909   4911     1   107.5800459 329.699200
   4911   4909   4912     1   108.7700466 392.459200
   4912   4914   4915     1   106.5500460 417.563200
   4916   4919   4920     1   109.8000471 387.438400
   4916   4919   4921     1   109.8000471 387.438400
   4917   4916   4919     1   109.5600471 388.275200
   4917   4916   4918     1   108.4600466 328.025600
   4918   4916   4919     1   109.5600471 388.275200
   4920   4919   4922     1   108.7700466 392.459200
   4920   4919   4921     1   107.5800459 329.699200
   4921   4919   4922     1   108.7700466 392.459200
   4922   4924   4925     1   106.5500460 417.563200
   4927   4930   4931     1   109.8000471 387.438400
   4927   4930   4932     1   109.8000471 387.438400
   4928   4927   4930     1   109.5600471 388.275200
   4928   4927   4957     1   109.7800468 425.094400
   4928   4927   4929     1   108.4600466 328.025600
   4929   4927   4930     1   109.5600471 388.275200
   4929   4927   4957     1   109.7800468 425.094400
   4930   4933   4934     1   109.5600471 388.275200
   4930   4933   4935     1   109.5600471 388.275200
   4931   4930   4933     1   109.8000471 387.438400
   4931   4930   4932     1   107.5800459 329.699200
   4932   4930   4933     1   109.8000471 387.438400
   4934   4933   4936     1   109.8800469 414.216000
   4934   4933   4935     1   108.4600466 328.025600
   4935   4933   4936     1   109.8800469 414.216000
   4936   4937   4938     1   109.8800469 414.216000
   4936   4937   4939     1   109.8800469 414.216000
   4936   4947   4948     1   109.8800469 414.216000
   4936   4947   4949     1   109.8800469 414.216000
   4937   4940   4941     1   109.8000471 387.438400
   4937   4940   4942     1   109.8000471 387.438400
   4938   4937   4940     1   109.5600471 388.275200
   4938   4937   4939     1   108.4600466 328.025600
   4939   4937   4940     1   109.5600471 388.275200
   4941   4940   4943     1   108.7700466 392.459200
   4941   4940   4942     1   107.5800459 329.699200
   4942   4940   4943     1   108.7700466 392.459200
   4943   4945   4946     1   106.5500460 417.563200
   4947   4950   4951     1   109.8000471 387.438400
   4947   4950   4952     1   109.8000471 387.438400
   4948   4947   4950     1   109.5600471 388.275200
   4948   4947   4949     1   108.4600466 328.025600
   4949   4947   4950     1   109.5600471 388.275200
   4951   4950   4953     1   108.7700466 392.459200
   4951   4950   4952     1   107.5800459 329.699200
   4952   4950   4953     1   108.7700466 392.459200
   4953   4955   4956     1   106.5500460 417.563200
   4958   4961   4962     1   109.8000471 387.438400
   4958   4961   4963     1   109.8000471 387.438400
   4959   4958   4961     1   109.5600471 388.275200
   4959   4958   4988     1   109.7800468 425.094400
   4959   4958   4960     1   108.4600466 328.025600
   4960   4958   4961     1   109.5600471 388.275200
   4960   4958   4988     1   109.7800468 425.094400
   4961   4964   4965     1   109.5600471 388.275200
   4961   4964   4966     1   109.5600471 388.275200
   4962   4961   4964     1   109.8000471 387.438400
   4962   4961   4963     1   107.5800459 329.699200
   4963   4961   4964     1   109.8000471 387.438400
   4965   4964   4967     1   109.8800469 414.216000
   4965   4964   4966     1   108.4600466 328.025600
   4966   4964   4967     1   109.8800469 414.216000
   4967   4968   4969     1   109.8800469 414.216000
   4967   4968   4970     1   109.8800469 414.216000
   4967   4978   4979     1   109.8800469 414.216000
   4967   4978   4980     1   109.8800469 414.216000
   4968   4971   4972     1   109.8000471 387.438400
   4968   4971   4973     1   109.8000471 387.438400
   4969   4968   4971     1   109.5600471 388.275200
   4969   4968   4970     1   108.4600466 328.025600
   4970   4968   4971     1   109.5600471 388.275200
   4972   4971   4974     1   108.7700466 392.459200
   4972   4971   4973     1   107.5800459 329.699200
   4973   4971   4974     1   108.7700466 392.459200
   4974   4976   4977     1   106.5500460 417.563200
   4978   4981   4982     1   109.8000471 387.438400
   4978   4981   4983     1   109.8000471 387.438400
   4979   4978   4981     1   109.5600471 388.275200
   4979   4978   4980     1   108.4600466 328.025600
   4980   4978   4981     1   109.5600471 388.275200
   4982   4981   4984     1   108.7700466 392.459200
   4982   4981   4983     1   107.5800459 329.699200
   4983   4981   4984     1   108.7700466 392.459200
   4984   4986   4987     1   106.5500460 417.563200
   4989   4992   4993     1   109.8000471 387.438400
   4989   4992   4994     1   109.8000471 387.438400
   4990   4989   4992     1   109.5600471 388.275200
   4990   4989   5019     1   109.7800468 425.094400
   4990   4989   4991     1   108.4600466 328.025600
   4991   4989   4992     1   109.5600471 388.275200
   4991   4989   5019     1   109.7800468 425.094400
   4992   4995   4996     1   109.5600471 388.275200
   4992   4995   4997     1   109.5600471 388.275200
   4993   4992   4995     1   109.8000471 387.438400
   4993   4992   4994     1   107.5800459 329.699200
   4994   4992   4995     1   109.8000471 387.438400
   4996   4995   4998     1   109.8800469 414.216000
   4996   4995   4997     1   108.4600466 328.025600
   4997   4995   4998     1   109.8800469 414.216000
   4998   4999   5000     1   109.8800469 414.216000
   4998   4999   5001     1   109.8800469 414.216000
   4998   5009   5010     1   109.8800469 414.216000
   4998   5009   5011     1   109.8800469 414.216000
   4999   5002   5003     1   109.8000471 387.438400
   4999   5002   5004     1   109.8000471 387.438400
   5000   4999   5002     1   109.5600471 388.275200
   5000   4999   5001     1   108.4600466 328.025600
   5001   4999   5002     1   109.5600471 388.275200
   5003   5002   5005     1   108.7700466 392.459200
   5003   5002   5004     1   107.5800459 329.699200
   5004   5002   5005     1   108.7700466 392.459200
   5005   5007   5008     1   106.5500460 417.563200
   5009   5012   5013     1   109.8000471 387.438400
   5009   5012   5014     1   109.8000471 387.438400
   5010   5009   5012     1   109.5600471 388.275200
   5010   5009   5011     1   108.4600466 328.025600
   5011   5009   5012     1   109.5600471 388.275200
   5013   5012   5015     1   108.7700466 392.459200
   5013   5012   5014     1   107.5800459 329.699200
   5014   5012   5015     1   108.7700466 392.459200
   5015   5017   5018     1   106.5500460 417.563200
   5020   5023   5024     1   109.8000471 387.438400
   5020   5023   5025     1   109.8000471 387.438400
   5021   5020   5023     1   109.5600471 388.275200
   5021   5020   5050     1   109.7800468 425.094400
   5021   5020   5022     1   108.4600466 328.025600
   5022   5020   5023     1   109.5600471 388.275200
   5022   5020   5050     1   109.7800468 425.094400
   5023   5026   5027     1   109.5600471 388.275200
   5023   5026   5028     1   109.5600471 388.275200
   5024   5023   5026     1   109.8000471 387.438400
   5024   5023   5025     1   107.5800459 329.699200
   5025   5023   5026     1   109.8000471 387.438400
   5027   5026   5029     1   109.8800469 414.216000
   5027   5026   5028     1   108.4600466 328.025600
   5028   5026   5029     1   109.8800469 414.216000
   5029   5030   5031     1   109.8800469 414.216000
   5029   5030   5032     1   109.8800469 414.216000
   5029   5040   5041     1   109.8800469 414.216000
   5029   5040   5042     1   109.8800469 414.216000
   5030   5033   5034     1   109.8000471 387.438400
   5030   5033   5035     1   109.8000471 387.438400
   5031   5030   5033     1   109.5600471 388.275200
   5031   5030   5032     1   108.4600466 328.025600
   5032   5030   5033     1   109.5600471 388.275200
   5034   5033   5036     1   108.7700466 392.459200
   5034   5033   5035     1   107.5800459 329.699200
   5035   5033   5036     1   108.7700466 392.459200
   5036   5038   5039     1   106.5500460 417.563200
   5040   5043   5044     1   109.8000471 387.438400
   5040   5043   5045     1   109.8000471 387.438400
   5041   5040   5043     1   109.5600471 388.275200
   5041   5040   5042     1   108.4600466 328.025600
   5042   5040   5043     1   109.5600471 388.275200
   5044   5043   5046     1   108.7700466 392.459200
   5044   5043   5045     1   107.5800459 329.699200
   5045   5043   5046     1   108.7700466 392.459200
   5046   5048   5049     1   106.5500460 417.563200
   5051   5054   5055     1   109.8000471 387.438400
   5051   5054   5056     1   109.8000471 387.438400
   5052   5051   5054     1   109.5600471 388.275200
   5052   5051   5081     1   109.7800468 425.094400
   5052   5051   5053     1   108.4600466 328.025600
   5053   5051   5054     1   109.5600471 388.275200
   5053   5051   5081     1   109.7800468 425.094400
   5054   5057   5058     1   109.5600471 388.275200
   5054   5057   5059     1   109.5600471 388.275200
   5055   5054   5057     1   109.8000471 387.438400
   5055   5054   5056     1   107.5800459 329.699200
   5056   5054   5057     1   109.8000471 387.438400
   5058   5057   5060     1   109.8800469 414.216000
   5058   5057   5059     1   108.4600466 328.025600
   5059   5057   5060     1   109.8800469 414.216000
   5060   5061   5062     1   109.8800469 414.216000
   5060   5061   5063     1   109.8800469 414.216000
   5060   5071   5072     1   109.8800469 414.216000
   5060   5071   5073     1   109.8800469 414.216000
   5061   5064   5065     1   109.8000471 387.438400
   5061   5064   5066     1   109.8000471 387.438400
   5062   5061   5064     1   109.5600471 388.275200
   5062   5061   5063     1   108.4600466 328.025600
   5063   5061   5064     1   109.5600471 388.275200
   5065   5064   5067     1   108.7700466 392.459200
   5065   5064   5066     1   107.5800459 329.699200
   5066   5064   5067     1   108.7700466 392.459200
   5067   5069   5070     1   106.5500460 417.563200
   5071   5074   5075     1   109.8000471 387.438400
   5071   5074   5076     1   109.8000471 387.438400
   5072   5071   5074     1   109.5600471 388.275200
   5072   5071   5073     1   108.4600466 328.025600
   5073   5071   5074     1   109.5600471 388.275200
   5075   5074   5077     1   108.7700466 392.459200
   5075   5074   5076     1   107.5800459 329.699200
   5076   5074   5077     1   108.7700466 392.459200
   5077   5079   5080     1   106.5500460 417.563200
   5082   5085   5086     1   109.8000471 387.438400
   5082   5085   5087     1   109.8000471 387.438400
   5083   5082   5085     1   109.5600471 388.275200
   5083   5082   5112     1   109.7800468 425.094400
   5083   5082   5084     1   108.4600466 328.025600
   5084   5082   5085     1   109.5600471 388.275200
   5084   5082   5112     1   109.7800468 425.094400
   5085   5088   5089     1   109.5600471 388.275200
   5085   5088   5090     1   109.5600471 388.275200
   5086   5085   5088     1   109.8000471 387.438400
   5086   5085   5087     1   107.5800459 329.699200
   5087   5085   5088     1   109.8000471 387.438400
   5089   5088   5091     1   109.8800469 414.216000
   5089   5088   5090     1   108.4600466 328.025600
   5090   5088   5091     1   109.8800469 414.216000
   5091   5092   5093     1   109.8800469 414.216000
   5091   5092   5094     1   109.8800469 414.216000
   5091   5102   5103     1   109.8800469 414.216000
   5091   5102   5104     1   109.8800469 414.216000
   5092   5095   5096     1   109.8000471 387.438400
   5092   5095   5097     1   109.8000471 387.438400
   5093   5092   5095     1   109.5600471 388.275200
   5093   5092   5094     1   108.4600466 328.025600
   5094   5092   5095     1   109.5600471 388.275200
   5096   5095   5098     1   108.7700466 392.459200
   5096   5095   5097     1   107.5800459 329.699200
   5097   5095   5098     1   108.7700466 392.459200
   5098   5100   5101     1   106.5500460 417.563200
   5102   5105   5106     1   109.8000471 387.438400
   5102   5105   5107     1   109.8000471 387.438400
   5103   5102   5105     1   109.5600471 388.275200
   5103   5102   5104     1   108.4600466 328.025600
   5104   5102   5105     1   109.5600471 388.275200
   5106   5105   5108     1   108.7700466 392.459200
   5106   5105   5107     1   107.5800459 329.699200
   5107   5105   5108     1   108.7700466 392.459200
   5108   5110   5111     1   106.5500460 417.563200
   5113   5116   5117     1   109.8000471 387.438400
   5113   5116   5118     1   109.8000471 387.438400
   5114   5113   5116     1   109.5600471 388.275200
   5114   5113   5143     1   109.7800468 425.094400
   5114   5113   5115     1   108.4600466 328.025600
   5115   5113   5116     1   109.5600471 388.275200
   5115   5113   5143     1   109.7800468 425.094400
   5116   5119   5120     1   109.5600471 388.275200
   5116   5119   5121     1   109.5600471 388.275200
   5117   5116   5119     1   109.8000471 387.438400
   5117   5116   5118     1   107.5800459 329.699200
   5118   5116   5119     1   109.8000471 387.438400
   5120   5119   5122     1   109.8800469 414.216000
   5120   5119   5121     1   108.4600466 328.025600
   5121   5119   5122     1   109.8800469 414.216000
   5122   5123   5124     1   109.8800469 414.216000
   5122   5123   5125     1   109.8800469 414.216000
   5122   5133   5134     1   109.8800469 414.216000
   5122   5133   5135     1   109.8800469 414.216000
   5123   5126   5127     1   109.8000471 387.438400
   5123   5126   5128     1   109.8000471 387.438400
   5124   5123   5126     1   109.5600471 388.275200
   5124   5123   5125     1   108.4600466 328.025600
   5125   5123   5126     1   109.5600471 388.275200
   5127   5126   5129     1   108.7700466 392.459200
   5127   5126   5128     1   107.5800459 329.699200
   5128   5126   5129     1   108.7700466 392.459200
   5129   5131   5132     1   106.5500460 417.563200
   5133   5136   5137     1   109.8000471 387.438400
   5133   5136   5138     1   109.8000471 387.438400
   5134   5133   5136     1   109.5600471 388.275200
   5134   5133   5135     1   108.4600466 328.025600
   5135   5133   5136     1   109.5600471 388.275200
   5137   5136   5139     1   108.7700466 392.459200
   5137   5136   5138     1   107.5800459 329.699200
   5138   5136   5139     1   108.7700466 392.459200
   5139   5141   5142     1   106.5500460 417.563200
   5144   5147   5148     1   109.8000471 387.438400
   5144   5147   5149     1   109.8000471 387.438400
   5145   5144   5147     1   109.5600471 388.275200
   5145   5144   5174     1   109.7800468 425.094400
   5145   5144   5146     1   108.4600466 328.025600
   5146   5144   5147     1   109.5600471 388.275200
   5146   5144   5174     1   109.7800468 425.094400
   5147   5150   5151     1   109.5600471 388.275200
   5147   5150   5152     1   109.5600471 388.275200
   5148   5147   5150     1   109.8000471 387.438400
   5148   5147   5149     1   107.5800459 329.699200
   5149   5147   5150     1   109.8000471 387.438400
   5151   5150   5153     1   109.8800469 414.216000
   5151   5150   5152     1   108.4600466 328.025600
   5152   5150   5153     1   109.8800469 414.216000
   5153   5154   5155     1   109.8800469 414.216000
   5153   5154   5156     1   109.8800469 414.216000
   5153   5164   5165     1   109.8800469 414.216000
   5153   5164   5166     1   109.8800469 414.216000
   5154   5157   5158     1   109.8000471 387.438400
   5154   5157   5159     1   109.8000471 387.438400
   5155   5154   5157     1   109.5600471 388.275200
   5155   5154   5156     1   108.4600466 328.025600
   5156   5154   5157     1   109.5600471 388.275200
   5158   5157   5160     1   108.7700466 392.459200
   5158   5157   5159     1   107.5800459 329.699200
   5159   5157   5160     1   108.7700466 392.459200
   5160   5162   5163     1   106.5500460 417.563200
   5164   5167   5168     1   109.8000471 387.438400
   5164   5167   5169     1   109.8000471 387.438400
   5165   5164   5167     1   109.5600471 388.275200
   5165   5164   5166     1   108.4600466 328.025600
   5166   5164   5167     1   109.5600471 388.275200
   5168   5167   5170     1   108.7700466 392.459200
   5168   5167   5169     1   107.5800459 329.699200
   5169   5167   5170     1   108.7700466 392.459200
   5170   5172   5173     1   106.5500460 417.563200
   5175   5178   5179     1   109.8000471 387.438400
   5175   5178   5180     1   109.8000471 387.438400
   5176   5175   5178     1   109.5600471 388.275200
   5176   5175   5205     1   109.7800468 425.094400
   5176   5175   5177     1   108.4600466 328.025600
   5177   5175   5178     1   109.5600471 388.275200
   5177   5175   5205     1   109.7800468 425.094400
   5178   5181   5182     1   109.5600471 388.275200
   5178   5181   5183     1   109.5600471 388.275200
   5179   5178   5181     1   109.8000471 387.438400
   5179   5178   5180     1   107.5800459 329.699200
   5180   5178   5181     1   109.8000471 387.438400
   5182   5181   5184     1   109.8800469 414.216000
   5182   5181   5183     1   108.4600466 328.025600
   5183   5181   5184     1   109.8800469 414.216000
   5184   5185   5186     1   109.8800469 414.216000
   5184   5185   5187     1   109.8800469 414.216000
   5184   5195   5196     1   109.8800469 414.216000
   5184   5195   5197     1   109.8800469 414.216000
   5185   5188   5189     1   109.8000471 387.438400
   5185   5188   5190     1   109.8000471 387.438400
   5186   5185   5188     1   109.5600471 388.275200
   5186   5185   5187     1   108.4600466 328.025600
   5187   5185   5188     1   109.5600471 388.275200
   5189   5188   5191     1   108.7700466 392.459200
   5189   5188   5190     1   107.5800459 329.699200
   5190   5188   5191     1   108.7700466 392.459200
   5191   5193   5194     1   106.5500460 417.563200
   5195   5198   5199     1   109.8000471 387.438400
   5195   5198   5200     1   109.8000471 387.438400
   5196   5195   5198     1   109.5600471 388.275200
   5196   5195   5197     1   108.4600466 328.025600
   5197   5195   5198     1   109.5600471 388.275200
   5199   5198   5201     1   108.7700466 392.459200
   5199   5198   5200     1   107.5800459 329.699200
   5200   5198   5201     1   108.7700466 392.459200
   5201   5203   5204     1   106.5500460 417.563200
   5206   5209   5210     1   109.8000471 387.438400
   5206   5209   5211     1   109.8000471 387.438400
   5207   5206   5209     1   109.5600471 388.275200
   5207   5206   5236     1   109.7800468 425.094400
   5207   5206   5208     1   108.4600466 328.025600
   5208   5206   5209     1   109.5600471 388.275200
   5208   5206   5236     1   109.7800468 425.094400
   5209   5212   5213     1   109.5600471 388.275200
   5209   5212   5214     1   109.5600471 388.275200
   5210   5209   5212     1   109.8000471 387.438400
   5210   5209   5211     1   107.5800459 329.699200
   5211   5209   5212     1   109.8000471 387.438400
   5213   5212   5215     1   109.8800469 414.216000
   5213   5212   5214     1   108.4600466 328.025600
   5214   5212   5215     1   109.8800469 414.216000
   5215   5216   5217     1   109.8800469 414.216000
   5215   5216   5218     1   109.8800469 414.216000
   5215   5226   5227     1   109.8800469 414.216000
   5215   5226   5228     1   109.8800469 414.216000
   5216   5219   5220     1   109.8000471 387.438400
   5216   5219   5221     1   109.8000471 387.438400
   5217   5216   5219     1   109.5600471 388.275200
   5217   5216   5218     1   108.4600466 328.025600
   5218   5216   5219     1   109.5600471 388.275200
   5220   5219   5222     1   108.7700466 392.459200
   5220   5219   5221     1   107.5800459 329.699200
   5221   5219   5222     1   108.7700466 392.459200
   5222   5224   5225     1   106.5500460 417.563200
   5226   5229   5230     1   109.8000471 387.438400
   5226   5229   5231     1   109.8000471 387.438400
   5227   5226   5229     1   109.5600471 388.275200
   5227   5226   5228     1   108.4600466 328.025600
   5228   5226   5229     1   109.5600471 388.275200
   5230   5229   5232     1   108.7700466 392.459200
   5230   5229   5231     1   107.5800459 329.699200
   5231   5229   5232     1   108.7700466 392.459200
   5232   5234   5235     1   106.5500460 417.563200
   5237   5240   5241     1   109.8000471 387.438400
   5237   5240   5242     1   109.8000471 387.438400
   5238   5237   5240     1   109.5600471 388.275200
   5238   5237   5267     1   109.7800468 425.094400
   5238   5237   5239     1   108.4600466 328.025600
   5239   5237   5240     1   109.5600471 388.275200
   5239   5237   5267     1   109.7800468 425.094400
   5240   5243   5244     1   109.5600471 388.275200
   5240   5243   5245     1   109.5600471 388.275200
   5241   5240   5243     1   109.8000471 387.438400
   5241   5240   5242     1   107.5800459 329.699200
   5242   5240   5243     1   109.8000471 387.438400
   5244   5243   5246     1   109.8800469 414.216000
   5244   5243   5245     1   108.4600466 328.025600
   5245   5243   5246     1   109.8800469 414.216000
   5246   5247   5248     1   109.8800469 414.216000
   5246   5247   5249     1   109.8800469 414.216000
   5246   5257   5258     1   109.8800469 414.216000
   5246   5257   5259     1   109.8800469 414.216000
   5247   5250   5251     1   109.8000471 387.438400
   5247   5250   5252     1   109.8000471 387.438400
   5248   5247   5250     1   109.5600471 388.275200
   5248   5247   5249     1   108.4600466 328.025600
   5249   5247   5250     1   109.5600471 388.275200
   5251   5250   5253     1   108.7700466 392.459200
   5251   5250   5252     1   107.5800459 329.699200
   5252   5250   5253     1   108.7700466 392.459200
   5253   5255   5256     1   106.5500460 417.563200
   5257   5260   5261     1   109.8000471 387.438400
   5257   5260   5262     1   109.8000471 387.438400
   5258   5257   5260     1   109.5600471 388.275200
   5258   5257   5259     1   108.4600466 328.025600
   5259   5257   5260     1   109.5600471 388.275200
   5261   5260   5263     1   108.7700466 392.459200
   5261   5260   5262     1   107.5800459 329.699200
   5262   5260   5263     1   108.7700466 392.459200
   5263   5265   5266     1   106.5500460 417.563200
   5268   5271   5272     1   109.8000471 387.438400
   5268   5271   5273     1   109.8000471 387.438400
   5269   5268   5271     1   109.5600471 388.275200
   5269   5268   5298     1   109.7800468 425.094400
   5269   5268   5270     1   108.4600466 328.025600
   5270   5268   5271     1   109.5600471 388.275200
   5270   5268   5298     1   109.7800468 425.094400
   5271   5274   5275     1   109.5600471 388.275200
   5271   5274   5276     1   109.5600471 388.275200
   5272   5271   5274     1   109.8000471 387.438400
   5272   5271   5273     1   107.5800459 329.699200
   5273   5271   5274     1   109.8000471 387.438400
   5275   5274   5277     1   109.8800469 414.216000
   5275   5274   5276     1   108.4600466 328.025600
   5276   5274   5277     1   109.8800469 414.216000
   5277   5278   5279     1   109.8800469 414.216000
   5277   5278   5280     1   109.8800469 414.216000
   5277   5288   5289     1   109.8800469 414.216000
   5277   5288   5290     1   109.8800469 414.216000
   5278   5281   5282     1   109.8000471 387.438400
   5278   5281   5283     1   109.8000471 387.438400
   5279   5278   5281     1   109.5600471 388.275200
   5279   5278   5280     1   108.4600466 328.025600
   5280   5278   5281     1   109.5600471 388.275200
   5282   5281   5284     1   108.7700466 392.459200
   5282   5281   5283     1   107.5800459 329.699200
   5283   5281   5284     1   108.7700466 392.459200
   5284   5286   5287     1   106.5500460 417.563200
   5288   5291   5292     1   109.8000471 387.438400
   5288   5291   5293     1   109.8000471 387.438400
   5289   5288   5291     1   109.5600471 388.275200
   5289   5288   5290     1   108.4600466 328.025600
   5290   5288   5291     1   109.5600471 388.275200
   5292   5291   5294     1   108.7700466 392.459200
   5292   5291   5293     1   107.5800459 329.699200
   5293   5291   5294     1   108.7700466 392.459200
   5294   5296   5297     1   106.5500460 417.563200
   5299   5302   5303     1   109.8000471 387.438400
   5299   5302   5304     1   109.8000471 387.438400
   5300   5299   5302     1   109.5600471 388.275200
   5300   5299   5329     1   109.7800468 425.094400
   5300   5299   5301     1   108.4600466 328.025600
   5301   5299   5302     1   109.5600471 388.275200
   5301   5299   5329     1   109.7800468 425.094400
   5302   5305   5306     1   109.5600471 388.275200
   5302   5305   5307     1   109.5600471 388.275200
   5303   5302   5305     1   109.8000471 387.438400
   5303   5302   5304     1   107.5800459 329.699200
   5304   5302   5305     1   109.8000471 387.438400
   5306   5305   5308     1   109.8800469 414.216000
   5306   5305   5307     1   108.4600466 328.025600
   5307   5305   5308     1   109.8800469 414.216000
   5308   5309   5310     1   109.8800469 414.216000
   5308   5309   5311     1   109.8800469 414.216000
   5308   5319   5320     1   109.8800469 414.216000
   5308   5319   5321     1   109.8800469 414.216000
   5309   5312   5313     1   109.8000471 387.438400
   5309   5312   5314     1   109.8000471 387.438400
   5310   5309   5312     1   109.5600471 388.275200
   5310   5309   5311     1   108.4600466 328.025600
   5311   5309   5312     1   109.5600471 388.275200
   5313   5312   5315     1   108.7700466 392.459200
   5313   5312   5314     1   107.5800459 329.699200
   5314   5312   5315     1   108.7700466 392.459200
   5315   5317   5318     1   106.5500460 417.563200
   5319   5322   5323     1   109.8000471 387.438400
   5319   5322   5324     1   109.8000471 387.438400
   5320   5319   5322     1   109.5600471 388.275200
   5320   5319   5321     1   108.4600466 328.025600
   5321   5319   5322     1   109.5600471 388.275200
   5323   5322   5325     1   108.7700466 392.459200
   5323   5322   5324     1   107.5800459 329.699200
   5324   5322   5325     1   108.7700466 392.459200
   5325   5327   5328     1   106.5500460 417.563200
   5330   5333   5334     1   109.8000471 387.438400
   5330   5333   5335     1   109.8000471 387.438400
   5331   5330   5333     1   109.5600471 388.275200
   5331   5330   5360     1   109.7800468 425.094400
   5331   5330   5332     1   108.4600466 328.025600
   5332   5330   5333     1   109.5600471 388.275200
   5332   5330   5360     1   109.7800468 425.094400
   5333   5336   5337     1   109.5600471 388.275200
   5333   5336   5338     1   109.5600471 388.275200
   5334   5333   5336     1   109.8000471 387.438400
   5334   5333   5335     1   107.5800459 329.699200
   5335   5333   5336     1   109.8000471 387.438400
   5337   5336   5339     1   109.8800469 414.216000
   5337   5336   5338     1   108.4600466 328.025600
   5338   5336   5339     1   109.8800469 414.216000
   5339   5340   5341     1   109.8800469 414.216000
   5339   5340   5342     1   109.8800469 414.216000
   5339   5350   5351     1   109.8800469 414.216000
   5339   5350   5352     1   109.8800469 414.216000
   5340   5343   5344     1   109.8000471 387.438400
   5340   5343   5345     1   109.8000471 387.438400
   5341   5340   5343     1   109.5600471 388.275200
   5341   5340   5342     1   108.4600466 328.025600
   5342   5340   5343     1   109.5600471 388.275200
   5344   5343   5346     1   108.7700466 392.459200
   5344   5343   5345     1   107.5800459 329.699200
   5345   5343   5346     1   108.7700466 392.459200
   5346   5348   5349     1   106.5500460 417.563200
   5350   5353   5354     1   109.8000471 387.438400
   5350   5353   5355     1   109.8000471 387.438400
   5351   5350   5353     1   109.5600471 388.275200
   5351   5350   5352     1   108.4600466 328.025600
   5352   5350   5353     1   109.5600471 388.275200
   5354   5353   5356     1   108.7700466 392.459200
   5354   5353   5355     1   107.5800459 329.699200
   5355   5353   5356     1   108.7700466 392.459200
   5356   5358   5359     1   106.5500460 417.563200
   5361   5364   5365     1   109.8000471 387.438400
   5361   5364   5366     1   109.8000471 387.438400
   5362   5361   5364     1   109.5600471 388.275200
   5362   5361   5391     1   109.7800468 425.094400
   5362   5361   5363     1   108.4600466 328.025600
   5363   5361   5364     1   109.5600471 388.275200
   5363   5361   5391     1   109.7800468 425.094400
   5364   5367   5368     1   109.5600471 388.275200
   5364   5367   5369     1   109.5600471 388.275200
   5365   5364   5367     1   109.8000471 387.438400
   5365   5364   5366     1   107.5800459 329.699200
   5366   5364   5367     1   109.8000471 387.438400
   5368   5367   5370     1   109.8800469 414.216000
   5368   5367   5369     1   108.4600466 328.025600
   5369   5367   5370     1   109.8800469 414.216000
   5370   5371   5372     1   109.8800469 414.216000
   5370   5371   5373     1   109.8800469 414.216000
   5370   5381   5382     1   109.8800469 414.216000
   5370   5381   5383     1   109.8800469 414.216000
   5371   5374   5375     1   109.8000471 387.438400
   5371   5374   5376     1   109.8000471 387.438400
   5372   5371   5374     1   109.5600471 388.275200
   5372   5371   5373     1   108.4600466 328.025600
   5373   5371   5374     1   109.5600471 388.275200
   5375   5374   5377     1   108.7700466 392.459200
   5375   5374   5376     1   107.5800459 329.699200
   5376   5374   5377     1   108.7700466 392.459200
   5377   5379   5380     1   106.5500460 417.563200
   5381   5384   5385     1   109.8000471 387.438400
   5381   5384   5386     1   109.8000471 387.438400
   5382   5381   5384     1   109.5600471 388.275200
   5382   5381   5383     1   108.4600466 328.025600
   5383   5381   5384     1   109.5600471 388.275200
   5385   5384   5387     1   108.7700466 392.459200
   5385   5384   5386     1   107.5800459 329.699200
   5386   5384   5387     1   108.7700466 392.459200
   5387   5389   5390     1   106.5500460 417.563200
   5392   5395   5396     1   109.8000471 387.438400
   5392   5395   5397     1   109.8000471 387.438400
   5393   5392   5395     1   109.5600471 388.275200
   5393   5392   5422     1   109.7800468 425.094400
   5393   5392   5394     1   108.4600466 328.025600
   5394   5392   5395     1   109.5600471 388.275200
   5394   5392   5422     1   109.7800468 425.094400
   5395   5398   5399     1   109.5600471 388.275200
   5395   5398   5400     1   109.5600471 388.275200
   5396   5395   5398     1   109.8000471 387.438400
   5396   5395   5397     1   107.5800459 329.699200
   5397   5395   5398     1   109.8000471 387.438400
   5399   5398   5401     1   109.8800469 414.216000
   5399   5398   5400     1   108.4600466 328.025600
   5400   5398   5401     1   109.8800469 414.216000
   5401   5402   5403     1   109.8800469 414.216000
   5401   5402   5404     1   109.8800469 414.216000
   5401   5412   5413     1   109.8800469 414.216000
   5401   5412   5414     1   109.8800469 414.216000
   5402   5405   5406     1   109.8000471 387.438400
   5402   5405   5407     1   109.8000471 387.438400
   5403   5402   5405     1   109.5600471 388.275200
   5403   5402   5404     1   108.4600466 328.025600
   5404   5402   5405     1   109.5600471 388.275200
   5406   5405   5408     1   108.7700466 392.459200
   5406   5405   5407     1   107.5800459 329.699200
   5407   5405   5408     1   108.7700466 392.459200
   5408   5410   5411     1   106.5500460 417.563200
   5412   5415   5416     1   109.8000471 387.438400
   5412   5415   5417     1   109.8000471 387.438400
   5413   5412   5415     1   109.5600471 388.275200
   5413   5412   5414     1   108.4600466 328.025600
   5414   5412   5415     1   109.5600471 388.275200
   5416   5415   5418     1   108.7700466 392.459200
   5416   5415   5417     1   107.5800459 329.699200
   5417   5415   5418     1   108.7700466 392.459200
   5418   5420   5421     1   106.5500460 417.563200
   5423   5426   5427     1   109.8000471 387.438400
   5423   5426   5428     1   109.8000471 387.438400
   5424   5423   5426     1   109.5600471 388.275200
   5424   5423   5453     1   109.7800468 425.094400
   5424   5423   5425     1   108.4600466 328.025600
   5425   5423   5426     1   109.5600471 388.275200
   5425   5423   5453     1   109.7800468 425.094400
   5426   5429   5430     1   109.5600471 388.275200
   5426   5429   5431     1   109.5600471 388.275200
   5427   5426   5429     1   109.8000471 387.438400
   5427   5426   5428     1   107.5800459 329.699200
   5428   5426   5429     1   109.8000471 387.438400
   5430   5429   5432     1   109.8800469 414.216000
   5430   5429   5431     1   108.4600466 328.025600
   5431   5429   5432     1   109.8800469 414.216000
   5432   5433   5434     1   109.8800469 414.216000
   5432   5433   5435     1   109.8800469 414.216000
   5432   5443   5444     1   109.8800469 414.216000
   5432   5443   5445     1   109.8800469 414.216000
   5433   5436   5437     1   109.8000471 387.438400
   5433   5436   5438     1   109.8000471 387.438400
   5434   5433   5436     1   109.5600471 388.275200
   5434   5433   5435     1   108.4600466 328.025600
   5435   5433   5436     1   109.5600471 388.275200
   5437   5436   5439     1   108.7700466 392.459200
   5437   5436   5438     1   107.5800459 329.699200
   5438   5436   5439     1   108.7700466 392.459200
   5439   5441   5442     1   106.5500460 417.563200
   5443   5446   5447     1   109.8000471 387.438400
   5443   5446   5448     1   109.8000471 387.438400
   5444   5443   5446     1   109.5600471 388.275200
   5444   5443   5445     1   108.4600466 328.025600
   5445   5443   5446     1   109.5600471 388.275200
   5447   5446   5449     1   108.7700466 392.459200
   5447   5446   5448     1   107.5800459 329.699200
   5448   5446   5449     1   108.7700466 392.459200
   5449   5451   5452     1   106.5500460 417.563200
   5454   5457   5458     1   109.8000471 387.438400
   5454   5457   5459     1   109.8000471 387.438400
   5455   5454   5457     1   109.5600471 388.275200
   5455   5454   5484     1   109.7800468 425.094400
   5455   5454   5456     1   108.4600466 328.025600
   5456   5454   5457     1   109.5600471 388.275200
   5456   5454   5484     1   109.7800468 425.094400
   5457   5460   5461     1   109.5600471 388.275200
   5457   5460   5462     1   109.5600471 388.275200
   5458   5457   5460     1   109.8000471 387.438400
   5458   5457   5459     1   107.5800459 329.699200
   5459   5457   5460     1   109.8000471 387.438400
   5461   5460   5463     1   109.8800469 414.216000
   5461   5460   5462     1   108.4600466 328.025600
   5462   5460   5463     1   109.8800469 414.216000
   5463   5464   5465     1   109.8800469 414.216000
   5463   5464   5466     1   109.8800469 414.216000
   5463   5474   5475     1   109.8800469 414.216000
   5463   5474   5476     1   109.8800469 414.216000
   5464   5467   5468     1   109.8000471 387.438400
   5464   5467   5469     1   109.8000471 387.438400
   5465   5464   5467     1   109.5600471 388.275200
   5465   5464   5466     1   108.4600466 328.025600
   5466   5464   5467     1   109.5600471 388.275200
   5468   5467   5470     1   108.7700466 392.459200
   5468   5467   5469     1   107.5800459 329.699200
   5469   5467   5470     1   108.7700466 392.459200
   5470   5472   5473     1   106.5500460 417.563200
   5474   5477   5478     1   109.8000471 387.438400
   5474   5477   5479     1   109.8000471 387.438400
   5475   5474   5477     1   109.5600471 388.275200
   5475   5474   5476     1   108.4600466 328.025600
   5476   5474   5477     1   109.5600471 388.275200
   5478   5477   5480     1   108.7700466 392.459200
   5478   5477   5479     1   107.5800459 329.699200
   5479   5477   5480     1   108.7700466 392.459200
   5480   5482   5483     1   106.5500460 417.563200
   5485   5488   5489     1   109.8000471 387.438400
   5485   5488   5490     1   109.8000471 387.438400
   5486   5485   5488     1   109.5600471 388.275200
   5486   5485   5515     1   109.7800468 425.094400
   5486   5485   5487     1   108.4600466 328.025600
   5487   5485   5488     1   109.5600471 388.275200
   5487   5485   5515     1   109.7800468 425.094400
   5488   5491   5492     1   109.5600471 388.275200
   5488   5491   5493     1   109.5600471 388.275200
   5489   5488   5491     1   109.8000471 387.438400
   5489   5488   5490     1   107.5800459 329.699200
   5490   5488   5491     1   109.8000471 387.438400
   5492   5491   5494     1   109.8800469 414.216000
   5492   5491   5493     1   108.4600466 328.025600
   5493   5491   5494     1   109.8800469 414.216000
   5494   5495   5496     1   109.8800469 414.216000
   5494   5495   5497     1   109.8800469 414.216000
   5494   5505   5506     1   109.8800469 414.216000
   5494   5505   5507     1   109.8800469 414.216000
   5495   5498   5499     1   109.8000471 387.438400
   5495   5498   5500     1   109.8000471 387.438400
   5496   5495   5498     1   109.5600471 388.275200
   5496   5495   5497     1   108.4600466 328.025600
   5497   5495   5498     1   109.5600471 388.275200
   5499   5498   5501     1   108.7700466 392.459200
   5499   5498   5500     1   107.5800459 329.699200
   5500   5498   5501     1   108.7700466 392.459200
   5501   5503   5504     1   106.5500460 417.563200
   5505   5508   5509     1   109.8000471 387.438400
   5505   5508   5510     1   109.8000471 387.438400
   5506   5505   5508     1   109.5600471 388.275200
   5506   5505   5507     1   108.4600466 328.025600
   5507   5505   5508     1   109.5600471 388.275200
   5509   5508   5511     1   108.7700466 392.459200
   5509   5508   5510     1   107.5800459 329.699200
   5510   5508   5511     1   108.7700466 392.459200
   5511   5513   5514     1   106.5500460 417.563200
   5516   5519   5520     1   109.8000471 387.438400
   5516   5519   5521     1   109.8000471 387.438400
   5517   5516   5519     1   109.5600471 388.275200
   5517   5516   5546     1   109.7800468 425.094400
   5517   5516   5518     1   108.4600466 328.025600
   5518   5516   5519     1   109.5600471 388.275200
   5518   5516   5546     1   109.7800468 425.094400
   5519   5522   5523     1   109.5600471 388.275200
   5519   5522   5524     1   109.5600471 388.275200
   5520   5519   5522     1   109.8000471 387.438400
   5520   5519   5521     1   107.5800459 329.699200
   5521   5519   5522     1   109.8000471 387.438400
   5523   5522   5525     1   109.8800469 414.216000
   5523   5522   5524     1   108.4600466 328.025600
   5524   5522   5525     1   109.8800469 414.216000
   5525   5526   5527     1   109.8800469 414.216000
   5525   5526   5528     1   109.8800469 414.216000
   5525   5536   5537     1   109.8800469 414.216000
   5525   5536   5538     1   109.8800469 414.216000
   5526   5529   5530     1   109.8000471 387.438400
   5526   5529   5531     1   109.8000471 387.438400
   5527   5526   5529     1   109.5600471 388.275200
   5527   5526   5528     1   108.4600466 328.025600
   5528   5526   5529     1   109.5600471 388.275200
   5530   5529   5532     1   108.7700466 392.459200
   5530   5529   5531     1   107.5800459 329.699200
   5531   5529   5532     1   108.7700466 392.459200
   5532   5534   5535     1   106.5500460 417.563200
   5536   5539   5540     1   109.8000471 387.438400
   5536   5539   5541     1   109.8000471 387.438400
   5537   5536   5539     1   109.5600471 388.275200
   5537   5536   5538     1   108.4600466 328.025600
   5538   5536   5539     1   109.5600471 388.275200
   5540   5539   5542     1   108.7700466 392.459200
   5540   5539   5541     1   107.5800459 329.699200
   5541   5539   5542     1   108.7700466 392.459200
   5542   5544   5545     1   106.5500460 417.563200
   5547   5550   5551     1   109.8000471 387.438400
   5547   5550   5552     1   109.8000471 387.438400
   5548   5547   5550     1   109.5600471 388.275200
   5548   5547   5577     1   109.7800468 425.094400
   5548   5547   5549     1   108.4600466 328.025600
   5549   5547   5550     1   109.5600471 388.275200
   5549   5547   5577     1   109.7800468 425.094400
   5550   5553   5554     1   109.5600471 388.275200
   5550   5553   5555     1   109.5600471 388.275200
   5551   5550   5553     1   109.8000471 387.438400
   5551   5550   5552     1   107.5800459 329.699200
   5552   5550   5553     1   109.8000471 387.438400
   5554   5553   5556     1   109.8800469 414.216000
   5554   5553   5555     1   108.4600466 328.025600
   5555   5553   5556     1   109.8800469 414.216000
   5556   5557   5558     1   109.8800469 414.216000
   5556   5557   5559     1   109.8800469 414.216000
   5556   5567   5568     1   109.8800469 414.216000
   5556   5567   5569     1   109.8800469 414.216000
   5557   5560   5561     1   109.8000471 387.438400
   5557   5560   5562     1   109.8000471 387.438400
   5558   5557   5560     1   109.5600471 388.275200
   5558   5557   5559     1   108.4600466 328.025600
   5559   5557   5560     1   109.5600471 388.275200
   5561   5560   5563     1   108.7700466 392.459200
   5561   5560   5562     1   107.5800459 329.699200
   5562   5560   5563     1   108.7700466 392.459200
   5563   5565   5566     1   106.5500460 417.563200
   5567   5570   5571     1   109.8000471 387.438400
   5567   5570   5572     1   109.8000471 387.438400
   5568   5567   5570     1   109.5600471 388.275200
   5568   5567   5569     1   108.4600466 328.025600
   5569   5567   5570     1   109.5600471 388.275200
   5571   5570   5573     1   108.7700466 392.459200
   5571   5570   5572     1   107.5800459 329.699200
   5572   5570   5573     1   108.7700466 392.459200
   5573   5575   5576     1   106.5500460 417.563200
   5578   5581   5582     1   109.8000471 387.438400
   5578   5581   5583     1   109.8000471 387.438400
   5579   5578   5581     1   109.5600471 388.275200
   5579   5578   5608     1   109.7800468 425.094400
   5579   5578   5580     1   108.4600466 328.025600
   5580   5578   5581     1   109.5600471 388.275200
   5580   5578   5608     1   109.7800468 425.094400
   5581   5584   5585     1   109.5600471 388.275200
   5581   5584   5586     1   109.5600471 388.275200
   5582   5581   5584     1   109.8000471 387.438400
   5582   5581   5583     1   107.5800459 329.699200
   5583   5581   5584     1   109.8000471 387.438400
   5585   5584   5587     1   109.8800469 414.216000
   5585   5584   5586     1   108.4600466 328.025600
   5586   5584   5587     1   109.8800469 414.216000
   5587   5588   5589     1   109.8800469 414.216000
   5587   5588   5590     1   109.8800469 414.216000
   5587   5598   5599     1   109.8800469 414.216000
   5587   5598   5600     1   109.8800469 414.216000
   5588   5591   5592     1   109.8000471 387.438400
   5588   5591   5593     1   109.8000471 387.438400
   5589   5588   5591     1   109.5600471 388.275200
   5589   5588   5590     1   108.4600466 328.025600
   5590   5588   5591     1   109.5600471 388.275200
   5592   5591   5594     1   108.7700466 392.459200
   5592   5591   5593     1   107.5800459 329.699200
   5593   5591   5594     1   108.7700466 392.459200
   5594   5596   5597     1   106.5500460 417.563200
   5598   5601   5602     1   109.8000471 387.438400
   5598   5601   5603     1   109.8000471 387.438400
   5599   5598   5601     1   109.5600471 388.275200
   5599   5598   5600     1   108.4600466 328.025600
   5600   5598   5601     1   109.5600471 388.275200
   5602   5601   5604     1   108.7700466 392.459200
   5602   5601   5603     1   107.5800459 329.699200
   5603   5601   5604     1   108.7700466 392.459200
   5604   5606   5607     1   106.5500460 417.563200
   5609   5612   5613     1   109.8000471 387.438400
   5609   5612   5614     1   109.8000471 387.438400
   5610   5609   5612     1   109.5600471 388.275200
   5610   5609   5639     1   109.7800468 425.094400
   5610   5609   5611     1   108.4600466 328.025600
   5611   5609   5612     1   109.5600471 388.275200
   5611   5609   5639     1   109.7800468 425.094400
   5612   5615   5616     1   109.5600471 388.275200
   5612   5615   5617     1   109.5600471 388.275200
   5613   5612   5615     1   109.8000471 387.438400
   5613   5612   5614     1   107.5800459 329.699200
   5614   5612   5615     1   109.8000471 387.438400
   5616   5615   5618     1   109.8800469 414.216000
   5616   5615   5617     1   108.4600466 328.025600
   5617   5615   5618     1   109.8800469 414.216000
   5618   5619   5620     1   109.8800469 414.216000
   5618   5619   5621     1   109.8800469 414.216000
   5618   5629   5630     1   109.8800469 414.216000
   5618   5629   5631     1   109.8800469 414.216000
   5619   5622   5623     1   109.8000471 387.438400
   5619   5622   5624     1   109.8000471 387.438400
   5620   5619   5622     1   109.5600471 388.275200
   5620   5619   5621     1   108.4600466 328.025600
   5621   5619   5622     1   109.5600471 388.275200
   5623   5622   5625     1   108.7700466 392.459200
   5623   5622   5624     1   107.5800459 329.699200
   5624   5622   5625     1   108.7700466 392.459200
   5625   5627   5628     1   106.5500460 417.563200
   5629   5632   5633     1   109.8000471 387.438400
   5629   5632   5634     1   109.8000471 387.438400
   5630   5629   5632     1   109.5600471 388.275200
   5630   5629   5631     1   108.4600466 328.025600
   5631   5629   5632     1   109.5600471 388.275200
   5633   5632   5635     1   108.7700466 392.459200
   5633   5632   5634     1   107.5800459 329.699200
   5634   5632   5635     1   108.7700466 392.459200
   5635   5637   5638     1   106.5500460 417.563200
   5640   5643   5644     1   109.8000471 387.438400
   5640   5643   5645     1   109.8000471 387.438400
   5641   5640   5643     1   109.5600471 388.275200
   5641   5640   5670     1   109.7800468 425.094400
   5641   5640   5642     1   108.4600466 328.025600
   5642   5640   5643     1   109.5600471 388.275200
   5642   5640   5670     1   109.7800468 425.094400
   5643   5646   5647     1   109.5600471 388.275200
   5643   5646   5648     1   109.5600471 388.275200
   5644   5643   5646     1   109.8000471 387.438400
   5644   5643   5645     1   107.5800459 329.699200
   5645   5643   5646     1   109.8000471 387.438400
   5647   5646   5649     1   109.8800469 414.216000
   5647   5646   5648     1   108.4600466 328.025600
   5648   5646   5649     1   109.8800469 414.216000
   5649   5650   5651     1   109.8800469 414.216000
   5649   5650   5652     1   109.8800469 414.216000
   5649   5660   5661     1   109.8800469 414.216000
   5649   5660   5662     1   109.8800469 414.216000
   5650   5653   5654     1   109.8000471 387.438400
   5650   5653   5655     1   109.8000471 387.438400
   5651   5650   5653     1   109.5600471 388.275200
   5651   5650   5652     1   108.4600466 328.025600
   5652   5650   5653     1   109.5600471 388.275200
   5654   5653   5656     1   108.7700466 392.459200
   5654   5653   5655     1   107.5800459 329.699200
   5655   5653   5656     1   108.7700466 392.459200
   5656   5658   5659     1   106.5500460 417.563200
   5660   5663   5664     1   109.8000471 387.438400
   5660   5663   5665     1   109.8000471 387.438400
   5661   5660   5663     1   109.5600471 388.275200
   5661   5660   5662     1   108.4600466 328.025600
   5662   5660   5663     1   109.5600471 388.275200
   5664   5663   5666     1   108.7700466 392.459200
   5664   5663   5665     1   107.5800459 329.699200
   5665   5663   5666     1   108.7700466 392.459200
   5666   5668   5669     1   106.5500460 417.563200
   5671   5674   5675     1   109.8000471 387.438400
   5671   5674   5676     1   109.8000471 387.438400
   5672   5671   5674     1   109.5600471 388.275200
   5672   5671   5701     1   109.7800468 425.094400
   5672   5671   5673     1   108.4600466 328.025600
   5673   5671   5674     1   109.5600471 388.275200
   5673   5671   5701     1   109.7800468 425.094400
   5674   5677   5678     1   109.5600471 388.275200
   5674   5677   5679     1   109.5600471 388.275200
   5675   5674   5677     1   109.8000471 387.438400
   5675   5674   5676     1   107.5800459 329.699200
   5676   5674   5677     1   109.8000471 387.438400
   5678   5677   5680     1   109.8800469 414.216000
   5678   5677   5679     1   108.4600466 328.025600
   5679   5677   5680     1   109.8800469 414.216000
   5680   5681   5682     1   109.8800469 414.216000
   5680   5681   5683     1   109.8800469 414.216000
   5680   5691   5692     1   109.8800469 414.216000
   5680   5691   5693     1   109.8800469 414.216000
   5681   5684   5685     1   109.8000471 387.438400
   5681   5684   5686     1   109.8000471 387.438400
   5682   5681   5684     1   109.5600471 388.275200
   5682   5681   5683     1   108.4600466 328.025600
   5683   5681   5684     1   109.5600471 388.275200
   5685   5684   5687     1   108.7700466 392.459200
   5685   5684   5686     1   107.5800459 329.699200
   5686   5684   5687     1   108.7700466 392.459200
   5687   5689   5690     1   106.5500460 417.563200
   5691   5694   5695     1   109.8000471 387.438400
   5691   5694   5696     1   109.8000471 387.438400
   5692   5691   5694     1   109.5600471 388.275200
   5692   5691   5693     1   108.4600466 328.025600
   5693   5691   5694     1   109.5600471 388.275200
   5695   5694   5697     1   108.7700466 392.459200
   5695   5694   5696     1   107.5800459 329.699200
   5696   5694   5697     1   108.7700466 392.459200
   5697   5699   5700     1   106.5500460 417.563200

[ dihedrals ]
;    ai     aj     ak     al funct         c0         c1         c2         c3         c4         c5
      1      2     14     26     1  0.0000000  0.6508444  3
      1      5     17     20     1  0.0000000  0.6508444  3
      1      8     11     23     1  0.0000000  0.6508444  3
      2      1      5     17     1  180.0000771  2.0083200  2
      2      1      5     17     1  0.0000000  1.2552000  3
      2      1      8     11     1  180.0000771  2.0083200  2
      2      1      8     11     1  0.0000000  1.2552000  3
      2     14     26    115     1  0.0000000  0.6508444  3
      5      1      2     14     1  180.0000771  2.0083200  2
      5      1      2     14     1  0.0000000  1.2552000  3
      5      1      8     11     1  180.0000771  2.0083200  2
      5      1      8     11     1  0.0000000  1.2552000  3
      5     17     20     57     1  0.0000000  0.6508444  3
      8      1      2     14     1  180.0000771  2.0083200  2
      8      1      2     14     1  0.0000000  1.2552000  3
      8      1      5     17     1  180.0000771  2.0083200  2
      8      1      5     17     1  0.0000000  1.2552000  3
      8     11     23     86     1  0.0000000  0.6508444  3
     11     23     86     77     1  180.0000771  0.4184000  2
     11     23     86     77     1  0.0000000  1.6024720  3
     14     26    115    106     1  180.0000771  0.4184000  2
     14     26    115    106     1  0.0000000  1.6024720  3
     17     20     57     48     1  180.0000771  0.4184000  2
     17     20     57     48     1  0.0000000  1.6024720  3
     20     57     48     39     1  180.0000771  0.4184000  2
     20     57     48     39     1  0.0000000  1.6024720  3
     23     86     77     68     1  180.0000771  0.4184000  2
     23     86     77     68     1  0.0000000  1.6024720  3
     26    115    106     97     1  180.0000771  0.4184000  2
     26    115    106     97     1  0.0000000  1.6024720  3
     29     30     42     54     1  0.0000000  0.6508444  3
     29     33     45     51     1  0.0000000  0.6508444  3
     29     36     39     48     1  0.0000000  0.6508444  3
     30     29     33     45     1  180.0000771  2.0083200  2
     30     29     33     45     1  0.0000000  1.2552000  3
     30     29     36     39     1  180.0000771  2.0083200  2
     30     29     36     39     1  0.0000000  1.2552000  3
     30     42     54    173     1  0.0000000  0.6508444  3
     33     29     30     42     1  180.0000771  2.0083200  2
     33     29     30     42     1  0.0000000  1.2552000  3
     33     29     36     39     1  180.0000771  2.0083200  2
     33     29     36     39     1  0.0000000  1.2552000  3
     33     45     51    144     1  0.0000000  0.6508444  3
     36     29     30     42     1  180.0000771  2.0083200  2
     36     29     30     42     1  0.0000000  1.2552000  3
     36     29     33     45     1  180.0000771  2.0083200  2
     36     29     33     45     1  0.0000000  1.2552000  3
     36     39     48     57     1  0.0000000  0.6508444  3
     42     54    173    164     1  180.0000771  0.4184000  2
     42     54    173    164     1  0.0000000  1.6024720  3
     45     51    144    135     1  180.0000771  0.4184000  2
     45     51    144    135     1  0.0000000  1.6024720  3
     51    144    135    126     1  180.0000771  0.4184000  2
     51    144    135    126     1  0.0000000  1.6024720  3
     54    173    164    155     1  180.0000771  0.4184000  2
     54    173    164    155     1  0.0000000  1.6024720  3
     58     59     71     83     1  0.0000000  0.6508444  3
     58     62     74     80     1  0.0000000  0.6508444  3
     58     65     68     77     1  0.0000000  0.6508444  3
     59     58     62     74     1  180.0000771  2.0083200  2
     59     58     62     74     1  0.0000000  1.2552000  3
     59     58     65     68     1  180.0000771  2.0083200  2
     59     58     65     68     1  0.0000000  1.2552000  3
     59     71     83    231     1  0.0000000  0.6508444  3
     62     58     59     71     1  180.0000771  2.0083200  2
     62     58     59     71     1  0.0000000  1.2552000  3
     62     58     65     68     1  180.0000771  2.0083200  2
     62     58     65     68     1  0.0000000  1.2552000  3
     62     74     80    202     1  0.0000000  0.6508444  3
     65     58     59     71     1  180.0000771  2.0083200  2
     65     58     59     71     1  0.0000000  1.2552000  3
     65     58     62     74     1  180.0000771  2.0083200  2
     65     58     62     74     1  0.0000000  1.2552000  3
     65     68     77     86     1  0.0000000  0.6508444  3
     71     83    231    222     1  180.0000771  0.4184000  2
     71     83    231    222     1  0.0000000  1.6024720  3
     74     80    202    193     1  180.0000771  0.4184000  2
     74     80    202    193     1  0.0000000  1.6024720  3
     80    202    193    184     1  180.0000771  0.4184000  2
     80    202    193    184     1  0.0000000  1.6024720  3
     83    231    222    213     1  180.0000771  0.4184000  2
     83    231    222    213     1  0.0000000  1.6024720  3
     87     88    100    112     1  0.0000000  0.6508444  3
     87     91    103    109     1  0.0000000  0.6508444  3
     87     94     97    106     1  0.0000000  0.6508444  3
     88     87     91    103     1  180.0000771  2.0083200  2
     88     87     91    103     1  0.0000000  1.2552000  3
     88     87     94     97     1  180.0000771  2.0083200  2
     88     87     94     97     1  0.0000000  1.2552000  3
     88    100    112    289     1  0.0000000  0.6508444  3
     91     87     88    100     1  180.0000771  2.0083200  2
     91     87     88    100     1  0.0000000  1.2552000  3
     91     87     94     97     1  180.0000771  2.0083200  2
     91     87     94     97     1  0.0000000  1.2552000  3
     91    103    109    260     1  0.0000000  0.6508444  3
     94     87     88    100     1  180.0000771  2.0083200  2
     94     87     88    100     1  0.0000000  1.2552000  3
     94     87     91    103     1  180.0000771  2.0083200  2
     94     87     91    103     1  0.0000000  1.2552000  3
     94     97    106    115     1  0.0000000  0.6508444  3
    100    112    289    280     1  180.0000771  0.4184000  2
    100    112    289    280     1  0.0000000  1.6024720  3
    103    109    260    251     1  180.0000771  0.4184000  2
    103    109    260    251     1  0.0000000  1.6024720  3
    109    260    251    242     1  180.0000771  0.4184000  2
    109    260    251    242     1  0.0000000  1.6024720  3
    112    289    280    271     1  180.0000771  0.4184000  2
    112    289    280    271     1  0.0000000  1.6024720  3
    116    117    129    141     1  0.0000000  0.6508444  3
    116    120    132    138     1  0.0000000  0.6508444  3
    116    123    126    135     1  0.0000000  0.6508444  3
    117    116    120    132     1  180.0000771  2.0083200  2
    117    116    120    132     1  0.0000000  1.2552000  3
    117    116    123    126     1  180.0000771  2.0083200  2
    117    116    123    126     1  0.0000000  1.2552000  3
    117    129    141    347     1  0.0000000  0.6508444  3
    120    116    117    129     1  180.0000771  2.0083200  2
    120    116    117    129     1  0.0000000  1.2552000  3
    120    116    123    126     1  180.0000771  2.0083200  2
    120    116    123    126     1  0.0000000  1.2552000  3
    120    132    138    318     1  0.0000000  0.6508444  3
    123    116    117    129     1  180.0000771  2.0083200  2
    123    116    117    129     1  0.0000000  1.2552000  3
    123    116    120    132     1  180.0000771  2.0083200  2
    123    116    120    132     1  0.0000000  1.2552000  3
    123    126    135    144     1  0.0000000  0.6508444  3
    129    141    347    338     1  180.0000771  0.4184000  2
    129    141    347    338     1  0.0000000  1.6024720  3
    132    138    318    309     1  180.0000771  0.4184000  2
    132    138    318    309     1  0.0000000  1.6024720  3
    138    318    309    300     1  180.0000771  0.4184000  2
    138    318    309    300     1  0.0000000  1.6024720  3
    141    347    338    329     1  180.0000771  0.4184000  2
    141    347    338    329     1  0.0000000  1.6024720  3
    145    146    158    170     1  0.0000000  0.6508444  3
    145    149    161    167     1  0.0000000  0.6508444  3
    145    152    155    164     1  0.0000000  0.6508444  3
    146    145    149    161     1  180.0000771  2.0083200  2
    146    145    149    161     1  0.0000000  1.2552000  3
    146    145    152    155     1  180.0000771  2.0083200  2
    146    145    152    155     1  0.0000000  1.2552000  3
    146    158    170    405     1  0.0000000  0.6508444  3
    149    145    146    158     1  180.0000771  2.0083200  2
    149    145    146    158     1  0.0000000  1.2552000  3
    149    145    152    155     1  180.0000771  2.0083200  2
    149    145    152    155     1  0.0000000  1.2552000  3
    149    161    167    376     1  0.0000000  0.6508444  3
    152    145    146    158     1  180.0000771  2.0083200  2
    152    145    146    158     1  0.0000000  1.2552000  3
    152    145    149    161     1  180.0000771  2.0083200  2
    152    145    149    161     1  0.0000000  1.2552000  3
    152    155    164    173     1  0.0000000  0.6508444  3
    158    170    405    396     1  180.0000771  0.4184000  2
    158    170    405    396     1  0.0000000  1.6024720  3
    161    167    376    367     1  180.0000771  0.4184000  2
    161    167    376    367     1  0.0000000  1.6024720  3
    167    376    367    358     1  180.0000771  0.4184000  2
    167    376    367    358     1  0.0000000  1.6024720  3
    170    405    396    387     1  180.0000771  0.4184000  2
    170    405    396    387     1  0.0000000  1.6024720  3
    174    175    187    199     1  0.0000000  0.6508444  3
    174    178    190    196     1  0.0000000  0.6508444  3
    174    181    184    193     1  0.0000000  0.6508444  3
    175    174    178    190     1  180.0000771  2.0083200  2
    175    174    178    190     1  0.0000000  1.2552000  3
    175    174    181    184     1  180.0000771  2.0083200  2
    175    174    181    184     1  0.0000000  1.2552000  3
    175    187    199    463     1  0.0000000  0.6508444  3
    178    174    175    187     1  180.0000771  2.0083200  2
    178    174    175    187     1  0.0000000  1.2552000  3
    178    174    181    184     1  180.0000771  2.0083200  2
    178    174    181    184     1  0.0000000  1.2552000  3
    178    190    196    434     1  0.0000000  0.6508444  3
    181    174    175    187     1  180.0000771  2.0083200  2
    181    174    175    187     1  0.0000000  1.2552000  3
    181    174    178    190     1  180.0000771  2.0083200  2
    181    174    178    190     1  0.0000000  1.2552000  3
    181    184    193    202     1  0.0000000  0.6508444  3
    187    199    463    454     1  180.0000771  0.4184000  2
    187    199    463    454     1  0.0000000  1.6024720  3
    190    196    434    425     1  180.0000771  0.4184000  2
    190    196    434    425     1  0.0000000  1.6024720  3
    196    434    425    416     1  180.0000771  0.4184000  2
    196    434    425    416     1  0.0000000  1.6024720  3
    199    463    454    445     1  180.0000771  0.4184000  2
    199    463    454    445     1  0.0000000  1.6024720  3
    203    204    216    228     1  0.0000000  0.6508444  3
    203    207    219    225     1  0.0000000  0.6508444  3
    203    210    213    222     1  0.0000000  0.6508444  3
    204    203    207    219     1  180.0000771  2.0083200  2
    204    203    207    219     1  0.0000000  1.2552000  3
    204    203    210    213     1  180.0000771  2.0083200  2
    204    203    210    213     1  0.0000000  1.2552000  3
    204    216    228    521     1  0.0000000  0.6508444  3
    207    203    204    216     1  180.0000771  2.0083200  2
    207    203    204    216     1  0.0000000  1.2552000  3
    207    203    210    213     1  180.0000771  2.0083200  2
    207    203    210    213     1  0.0000000  1.2552000  3
    207    219    225    492     1  0.0000000  0.6508444  3
    210    203    204    216     1  180.0000771  2.0083200  2
    210    203    204    216     1  0.0000000  1.2552000  3
    210    203    207    219     1  180.0000771  2.0083200  2
    210    203    207    219     1  0.0000000  1.2552000  3
    210    213    222    231     1  0.0000000  0.6508444  3
    216    228    521    512     1  180.0000771  0.4184000  2
    216    228    521    512     1  0.0000000  1.6024720  3
    219    225    492    483     1  180.0000771  0.4184000  2
    219    225    492    483     1  0.0000000  1.6024720  3
    225    492    483    474     1  180.0000771  0.4184000  2
    225    492    483    474     1  0.0000000  1.6024720  3
    228    521    512    503     1  180.0000771  0.4184000  2
    228    521    512    503     1  0.0000000  1.6024720  3
    232    233    245    257     1  0.0000000  0.6508444  3
    232    236    248    254     1  0.0000000  0.6508444  3
    232    239    242    251     1  0.0000000  0.6508444  3
    233    232    236    248     1  180.0000771  2.0083200  2
    233    232    236    248     1  0.0000000  1.2552000  3
    233    232    239    242     1  180.0000771  2.0083200  2
    233    232    239    242     1  0.0000000  1.2552000  3
    233    245    257    579     1  0.0000000  0.6508444  3
    236    232    233    245     1  180.0000771  2.0083200  2
    236    232    233    245     1  0.0000000  1.2552000  3
    236    232    239    242     1  180.0000771  2.0083200  2
    236    232    239    242     1  0.0000000  1.2552000  3
    236    248    254    550     1  0.0000000  0.6508444  3
    239    232    233    245     1  180.0000771  2.0083200  2
    239    232    233    245     1  0.0000000  1.2552000  3
    239    232    236    248     1  180.0000771  2.0083200  2
    239    232    236    248     1  0.0000000  1.2552000  3
    239    242    251    260     1  0.0000000  0.6508444  3
    245    257    579    570     1  180.0000771  0.4184000  2
    245    257    579    570     1  0.0000000  1.6024720  3
    248    254    550    541     1  180.0000771  0.4184000  2
    248    254    550    541     1  0.0000000  1.6024720  3
    254    550    541    532     1  180.0000771  0.4184000  2
    254    550    541    532     1  0.0000000  1.6024720  3
    257    579    570    561     1  180.0000771  0.4184000  2
    257    579    570    561     1  0.0000000  1.6024720  3
    261    262    274    286     1  0.0000000  0.6508444  3
    261    265    277    283     1  0.0000000  0.6508444  3
    261    268    271    280     1  0.0000000  0.6508444  3
    262    261    265    277     1  180.0000771  2.0083200  2
    262    261    265    277     1  0.0000000  1.2552000  3
    262    261    268    271     1  180.0000771  2.0083200  2
    262    261    268    271     1  0.0000000  1.2552000  3
    262    274    286    637     1  0.0000000  0.6508444  3
    265    261    262    274     1  180.0000771  2.0083200  2
    265    261    262    274     1  0.0000000  1.2552000  3
    265    261    268    271     1  180.0000771  2.0083200  2
    265    261    268    271     1  0.0000000  1.2552000  3
    265    277    283    608     1  0.0000000  0.6508444  3
    268    261    262    274     1  180.0000771  2.0083200  2
    268    261    262    274     1  0.0000000  1.2552000  3
    268    261    265    277     1  180.0000771  2.0083200  2
    268    261    265    277     1  0.0000000  1.2552000  3
    268    271    280    289     1  0.0000000  0.6508444  3
    274    286    637    628     1  180.0000771  0.4184000  2
    274    286    637    628     1  0.0000000  1.6024720  3
    277    283    608    599     1  180.0000771  0.4184000  2
    277    283    608    599     1  0.0000000  1.6024720  3
    283    608    599    590     1  180.0000771  0.4184000  2
    283    608    599    590     1  0.0000000  1.6024720  3
    286    637    628    619     1  180.0000771  0.4184000  2
    286    637    628    619     1  0.0000000  1.6024720  3
    290    291    303    315     1  0.0000000  0.6508444  3
    290    294    306    312     1  0.0000000  0.6508444  3
    290    297    300    309     1  0.0000000  0.6508444  3
    291    290    294    306     1  180.0000771  2.0083200  2
    291    290    294    306     1  0.0000000  1.2552000  3
    291    290    297    300     1  180.0000771  2.0083200  2
    291    290    297    300     1  0.0000000  1.2552000  3
    291    303    315    695     1  0.0000000  0.6508444  3
    294    290    291    303     1  180.0000771  2.0083200  2
    294    290    291    303     1  0.0000000  1.2552000  3
    294    290    297    300     1  180.0000771  2.0083200  2
    294    290    297    300     1  0.0000000  1.2552000  3
    294    306    312    666     1  0.0000000  0.6508444  3
    297    290    291    303     1  180.0000771  2.0083200  2
    297    290    291    303     1  0.0000000  1.2552000  3
    297    290    294    306     1  180.0000771  2.0083200  2
    297    290    294    306     1  0.0000000  1.2552000  3
    297    300    309    318     1  0.0000000  0.6508444  3
    303    315    695    686     1  180.0000771  0.4184000  2
    303    315    695    686     1  0.0000000  1.6024720  3
    306    312    666    657     1  180.0000771  0.4184000  2
    306    312    666    657     1  0.0000000  1.6024720  3
    312    666    657    648     1  180.0000771  0.4184000  2
    312    666    657    648     1  0.0000000  1.6024720  3
    315    695    686    677     1  180.0000771  0.4184000  2
    315    695    686    677     1  0.0000000  1.6024720  3
    319    320    332    344     1  0.0000000  0.6508444  3
    319    323    335    341     1  0.0000000  0.6508444  3
    319    326    329    338     1  0.0000000  0.6508444  3
    320    319    323    335     1  180.0000771  2.0083200  2
    320    319    323    335     1  0.0000000  1.2552000  3
    320    319    326    329     1  180.0000771  2.0083200  2
    320    319    326    329     1  0.0000000  1.2552000  3
    320    332    344    753     1  0.0000000  0.6508444  3
    323    319    320    332     1  180.0000771  2.0083200  2
    323    319    320    332     1  0.0000000  1.2552000  3
    323    319    326    329     1  180.0000771  2.0083200  2
    323    319    326    329     1  0.0000000  1.2552000  3
    323    335    341    724     1  0.0000000  0.6508444  3
    326    319    320    332     1  180.0000771  2.0083200  2
    326    319    320    332     1  0.0000000  1.2552000  3
    326    319    323    335     1  180.0000771  2.0083200  2
    326    319    323    335     1  0.0000000  1.2552000  3
    326    329    338    347     1  0.0000000  0.6508444  3
    332    344    753    744     1  180.0000771  0.4184000  2
    332    344    753    744     1  0.0000000  1.6024720  3
    335    341    724    715     1  180.0000771  0.4184000  2
    335    341    724    715     1  0.0000000  1.6024720  3
    341    724    715    706     1  180.0000771  0.4184000  2
    341    724    715    706     1  0.0000000  1.6024720  3
    344    753    744    735     1  180.0000771  0.4184000  2
    344    753    744    735     1  0.0000000  1.6024720  3
    348    349    361    373     1  0.0000000  0.6508444  3
    348    352    364    370     1  0.0000000  0.6508444  3
    348    355    358    367     1  0.0000000  0.6508444  3
    349    348    352    364     1  180.0000771  2.0083200  2
    349    348    352    364     1  0.0000000  1.2552000  3
    349    348    355    358     1  180.0000771  2.0083200  2
    349    348    355    358     1  0.0000000  1.2552000  3
    349    361    373    811     1  0.0000000  0.6508444  3
    352    348    349    361     1  180.0000771  2.0083200  2
    352    348    349    361     1  0.0000000  1.2552000  3
    352    348    355    358     1  180.0000771  2.0083200  2
    352    348    355    358     1  0.0000000  1.2552000  3
    352    364    370    782     1  0.0000000  0.6508444  3
    355    348    349    361     1  180.0000771  2.0083200  2
    355    348    349    361     1  0.0000000  1.2552000  3
    355    348    352    364     1  180.0000771  2.0083200  2
    355    348    352    364     1  0.0000000  1.2552000  3
    355    358    367    376     1  0.0000000  0.6508444  3
    361    373    811    802     1  180.0000771  0.4184000  2
    361    373    811    802     1  0.0000000  1.6024720  3
    364    370    782    773     1  180.0000771  0.4184000  2
    364    370    782    773     1  0.0000000  1.6024720  3
    370    782    773    764     1  180.0000771  0.4184000  2
    370    782    773    764     1  0.0000000  1.6024720  3
    373    811    802    793     1  180.0000771  0.4184000  2
    373    811    802    793     1  0.0000000  1.6024720  3
    377    378    390    402     1  0.0000000  0.6508444  3
    377    381    393    399     1  0.0000000  0.6508444  3
    377    384    387    396     1  0.0000000  0.6508444  3
    378    377    381    393     1  180.0000771  2.0083200  2
    378    377    381    393     1  0.0000000  1.2552000  3
    378    377    384    387     1  180.0000771  2.0083200  2
    378    377    384    387     1  0.0000000  1.2552000  3
    378    390    402    869     1  0.0000000  0.6508444  3
    381    377    378    390     1  180.0000771  2.0083200  2
    381    377    378    390     1  0.0000000  1.2552000  3
    381    377    384    387     1  180.0000771  2.0083200  2
    381    377    384    387     1  0.0000000  1.2552000  3
    381    393    399    840     1  0.0000000  0.6508444  3
    384    377    378    390     1  180.0000771  2.0083200  2
    384    377    378    390     1  0.0000000  1.2552000  3
    384    377    381    393     1  180.0000771  2.0083200  2
    384    377    381    393     1  0.0000000  1.2552000  3
    384    387    396    405     1  0.0000000  0.6508444  3
    390    402    869    860     1  180.0000771  0.4184000  2
    390    402    869    860     1  0.0000000  1.6024720  3
    393    399    840    831     1  180.0000771  0.4184000  2
    393    399    840    831     1  0.0000000  1.6024720  3
    399    840    831    822     1  180.0000771  0.4184000  2
    399    840    831    822     1  0.0000000  1.6024720  3
    402    869    860    851     1  180.0000771  0.4184000  2
    402    869    860    851     1  0.0000000  1.6024720  3
    406    407    419    431     1  0.0000000  0.6508444  3
    406    410    422    428     1  0.0000000  0.6508444  3
    406    413    416    425     1  0.0000000  0.6508444  3
    407    406    410    422     1  180.0000771  2.0083200  2
    407    406    410    422     1  0.0000000  1.2552000  3
    407    406    413    416     1  180.0000771  2.0083200  2
    407    406    413    416     1  0.0000000  1.2552000  3
    407    419    431    927     1  0.0000000  0.6508444  3
    410    406    407    419     1  180.0000771  2.0083200  2
    410    406    407    419     1  0.0000000  1.2552000  3
    410    406    413    416     1  180.0000771  2.0083200  2
    410    406    413    416     1  0.0000000  1.2552000  3
    410    422    428    898     1  0.0000000  0.6508444  3
    413    406    407    419     1  180.0000771  2.0083200  2
    413    406    407    419     1  0.0000000  1.2552000  3
    413    406    410    422     1  180.0000771  2.0083200  2
    413    406    410    422     1  0.0000000  1.2552000  3
    413    416    425    434     1  0.0000000  0.6508444  3
    419    431    927    918     1  180.0000771  0.4184000  2
    419    431    927    918     1  0.0000000  1.6024720  3
    422    428    898    889     1  180.0000771  0.4184000  2
    422    428    898    889     1  0.0000000  1.6024720  3
    428    898    889    880     1  180.0000771  0.4184000  2
    428    898    889    880     1  0.0000000  1.6024720  3
    431    927    918    909     1  180.0000771  0.4184000  2
    431    927    918    909     1  0.0000000  1.6024720  3
    435    436    448    460     1  0.0000000  0.6508444  3
    435    439    451    457     1  0.0000000  0.6508444  3
    435    442    445    454     1  0.0000000  0.6508444  3
    436    435    439    451     1  180.0000771  2.0083200  2
    436    435    439    451     1  0.0000000  1.2552000  3
    436    435    442    445     1  180.0000771  2.0083200  2
    436    435    442    445     1  0.0000000  1.2552000  3
    436    448    460    985     1  0.0000000  0.6508444  3
    439    435    436    448     1  180.0000771  2.0083200  2
    439    435    436    448     1  0.0000000  1.2552000  3
    439    435    442    445     1  180.0000771  2.0083200  2
    439    435    442    445     1  0.0000000  1.2552000  3
    439    451    457    956     1  0.0000000  0.6508444  3
    442    435    436    448     1  180.0000771  2.0083200  2
    442    435    436    448     1  0.0000000  1.2552000  3
    442    435    439    451     1  180.0000771  2.0083200  2
    442    435    439    451     1  0.0000000  1.2552000  3
    442    445    454    463     1  0.0000000  0.6508444  3
    448    460    985    976     1  180.0000771  0.4184000  2
    448    460    985    976     1  0.0000000  1.6024720  3
    451    457    956    947     1  180.0000771  0.4184000  2
    451    457    956    947     1  0.0000000  1.6024720  3
    457    956    947    938     1  180.0000771  0.4184000  2
    457    956    947    938     1  0.0000000  1.6024720  3
    460    985    976    967     1  180.0000771  0.4184000  2
    460    985    976    967     1  0.0000000  1.6024720  3
    464    465    477    489     1  0.0000000  0.6508444  3
    464    468    480    486     1  0.0000000  0.6508444  3
    464    471    474    483     1  0.0000000  0.6508444  3
    465    464    468    480     1  180.0000771  2.0083200  2
    465    464    468    480     1  0.0000000  1.2552000  3
    465    464    471    474     1  180.0000771  2.0083200  2
    465    464    471    474     1  0.0000000  1.2552000  3
    465    477    489   1043     1  0.0000000  0.6508444  3
    468    464    465    477     1  180.0000771  2.0083200  2
    468    464    465    477     1  0.0000000  1.2552000  3
    468    464    471    474     1  180.0000771  2.0083200  2
    468    464    471    474     1  0.0000000  1.2552000  3
    468    480    486   1014     1  0.0000000  0.6508444  3
    471    464    465    477     1  180.0000771  2.0083200  2
    471    464    465    477     1  0.0000000  1.2552000  3
    471    464    468    480     1  180.0000771  2.0083200  2
    471    464    468    480     1  0.0000000  1.2552000  3
    471    474    483    492     1  0.0000000  0.6508444  3
    477    489   1043   1034     1  180.0000771  0.4184000  2
    477    489   1043   1034     1  0.0000000  1.6024720  3
    480    486   1014   1005     1  180.0000771  0.4184000  2
    480    486   1014   1005     1  0.0000000  1.6024720  3
    486   1014   1005    996     1  180.0000771  0.4184000  2
    486   1014   1005    996     1  0.0000000  1.6024720  3
    489   1043   1034   1025     1  180.0000771  0.4184000  2
    489   1043   1034   1025     1  0.0000000  1.6024720  3
    493    494    506    518     1  0.0000000  0.6508444  3
    493    497    509    515     1  0.0000000  0.6508444  3
    493    500    503    512     1  0.0000000  0.6508444  3
    494    493    497    509     1  180.0000771  2.0083200  2
    494    493    497    509     1  0.0000000  1.2552000  3
    494    493    500    503     1  180.0000771  2.0083200  2
    494    493    500    503     1  0.0000000  1.2552000  3
    494    506    518   1101     1  0.0000000  0.6508444  3
    497    493    494    506     1  180.0000771  2.0083200  2
    497    493    494    506     1  0.0000000  1.2552000  3
    497    493    500    503     1  180.0000771  2.0083200  2
    497    493    500    503     1  0.0000000  1.2552000  3
    497    509    515   1072     1  0.0000000  0.6508444  3
    500    493    494    506     1  180.0000771  2.0083200  2
    500    493    494    506     1  0.0000000  1.2552000  3
    500    493    497    509     1  180.0000771  2.0083200  2
    500    493    497    509     1  0.0000000  1.2552000  3
    500    503    512    521     1  0.0000000  0.6508444  3
    506    518   1101   1092     1  180.0000771  0.4184000  2
    506    518   1101   1092     1  0.0000000  1.6024720  3
    509    515   1072   1063     1  180.0000771  0.4184000  2
    509    515   1072   1063     1  0.0000000  1.6024720  3
    515   1072   1063   1054     1  180.0000771  0.4184000  2
    515   1072   1063   1054     1  0.0000000  1.6024720  3
    518   1101   1092   1083     1  180.0000771  0.4184000  2
    518   1101   1092   1083     1  0.0000000  1.6024720  3
    522    523    535    547     1  0.0000000  0.6508444  3
    522    526    538    544     1  0.0000000  0.6508444  3
    522    529    532    541     1  0.0000000  0.6508444  3
    523    522    526    538     1  180.0000771  2.0083200  2
    523    522    526    538     1  0.0000000  1.2552000  3
    523    522    529    532     1  180.0000771  2.0083200  2
    523    522    529    532     1  0.0000000  1.2552000  3
    523    535    547   1159     1  0.0000000  0.6508444  3
    526    522    523    535     1  180.0000771  2.0083200  2
    526    522    523    535     1  0.0000000  1.2552000  3
    526    522    529    532     1  180.0000771  2.0083200  2
    526    522    529    532     1  0.0000000  1.2552000  3
    526    538    544   1130     1  0.0000000  0.6508444  3
    529    522    523    535     1  180.0000771  2.0083200  2
    529    522    523    535     1  0.0000000  1.2552000  3
    529    522    526    538     1  180.0000771  2.0083200  2
    529    522    526    538     1  0.0000000  1.2552000  3
    529    532    541    550     1  0.0000000  0.6508444  3
    535    547   1159   1150     1  180.0000771  0.4184000  2
    535    547   1159   1150     1  0.0000000  1.6024720  3
    538    544   1130   1121     1  180.0000771  0.4184000  2
    538    544   1130   1121     1  0.0000000  1.6024720  3
    544   1130   1121   1112     1  180.0000771  0.4184000  2
    544   1130   1121   1112     1  0.0000000  1.6024720  3
    547   1159   1150   1141     1  180.0000771  0.4184000  2
    547   1159   1150   1141     1  0.0000000  1.6024720  3
    551    552    564    576     1  0.0000000  0.6508444  3
    551    555    567    573     1  0.0000000  0.6508444  3
    551    558    561    570     1  0.0000000  0.6508444  3
    552    551    555    567     1  180.0000771  2.0083200  2
    552    551    555    567     1  0.0000000  1.2552000  3
    552    551    558    561     1  180.0000771  2.0083200  2
    552    551    558    561     1  0.0000000  1.2552000  3
    552    564    576   1217     1  0.0000000  0.6508444  3
    555    551    552    564     1  180.0000771  2.0083200  2
    555    551    552    564     1  0.0000000  1.2552000  3
    555    551    558    561     1  180.0000771  2.0083200  2
    555    551    558    561     1  0.0000000  1.2552000  3
    555    567    573   1188     1  0.0000000  0.6508444  3
    558    551    552    564     1  180.0000771  2.0083200  2
    558    551    552    564     1  0.0000000  1.2552000  3
    558    551    555    567     1  180.0000771  2.0083200  2
    558    551    555    567     1  0.0000000  1.2552000  3
    558    561    570    579     1  0.0000000  0.6508444  3
    564    576   1217   1208     1  180.0000771  0.4184000  2
    564    576   1217   1208     1  0.0000000  1.6024720  3
    567    573   1188   1179     1  180.0000771  0.4184000  2
    567    573   1188   1179     1  0.0000000  1.6024720  3
    573   1188   1179   1170     1  180.0000771  0.4184000  2
    573   1188   1179   1170     1  0.0000000  1.6024720  3
    576   1217   1208   1199     1  180.0000771  0.4184000  2
    576   1217   1208   1199     1  0.0000000  1.6024720  3
    580    581    593    605     1  0.0000000  0.6508444  3
    580    584    596    602     1  0.0000000  0.6508444  3
    580    587    590    599     1  0.0000000  0.6508444  3
    581    580    584    596     1  180.0000771  2.0083200  2
    581    580    584    596     1  0.0000000  1.2552000  3
    581    580    587    590     1  180.0000771  2.0083200  2
    581    580    587    590     1  0.0000000  1.2552000  3
    581    593    605   1275     1  0.0000000  0.6508444  3
    584    580    581    593     1  180.0000771  2.0083200  2
    584    580    581    593     1  0.0000000  1.2552000  3
    584    580    587    590     1  180.0000771  2.0083200  2
    584    580    587    590     1  0.0000000  1.2552000  3
    584    596    602   1246     1  0.0000000  0.6508444  3
    587    580    581    593     1  180.0000771  2.0083200  2
    587    580    581    593     1  0.0000000  1.2552000  3
    587    580    584    596     1  180.0000771  2.0083200  2
    587    580    584    596     1  0.0000000  1.2552000  3
    587    590    599    608     1  0.0000000  0.6508444  3
    593    605   1275   1266     1  180.0000771  0.4184000  2
    593    605   1275   1266     1  0.0000000  1.6024720  3
    596    602   1246   1237     1  180.0000771  0.4184000  2
    596    602   1246   1237     1  0.0000000  1.6024720  3
    602   1246   1237   1228     1  180.0000771  0.4184000  2
    602   1246   1237   1228     1  0.0000000  1.6024720  3
    605   1275   1266   1257     1  180.0000771  0.4184000  2
    605   1275   1266   1257     1  0.0000000  1.6024720  3
    609    610    622    634     1  0.0000000  0.6508444  3
    609    613    625    631     1  0.0000000  0.6508444  3
    609    616    619    628     1  0.0000000  0.6508444  3
    610    609    613    625     1  180.0000771  2.0083200  2
    610    609    613    625     1  0.0000000  1.2552000  3
    610    609    616    619     1  180.0000771  2.0083200  2
    610    609    616    619     1  0.0000000  1.2552000  3
    610    622    634   1333     1  0.0000000  0.6508444  3
    613    609    610    622     1  180.0000771  2.0083200  2
    613    609    610    622     1  0.0000000  1.2552000  3
    613    609    616    619     1  180.0000771  2.0083200  2
    613    609    616    619     1  0.0000000  1.2552000  3
    613    625    631   1304     1  0.0000000  0.6508444  3
    616    609    610    622     1  180.0000771  2.0083200  2
    616    609    610    622     1  0.0000000  1.2552000  3
    616    609    613    625     1  180.0000771  2.0083200  2
    616    609    613    625     1  0.0000000  1.2552000  3
    616    619    628    637     1  0.0000000  0.6508444  3
    622    634   1333   1324     1  180.0000771  0.4184000  2
    622    634   1333   1324     1  0.0000000  1.6024720  3
    625    631   1304   1295     1  180.0000771  0.4184000  2
    625    631   1304   1295     1  0.0000000  1.6024720  3
    631   1304   1295   1286     1  180.0000771  0.4184000  2
    631   1304   1295   1286     1  0.0000000  1.6024720  3
    634   1333   1324   1315     1  180.0000771  0.4184000  2
    634   1333   1324   1315     1  0.0000000  1.6024720  3
    638    639    651    663     1  0.0000000  0.6508444  3
    638    642    654    660     1  0.0000000  0.6508444  3
    638    645    648    657     1  0.0000000  0.6508444  3
    639    638    642    654     1  180.0000771  2.0083200  2
    639    638    642    654     1  0.0000000  1.2552000  3
    639    638    645    648     1  180.0000771  2.0083200  2
    639    638    645    648     1  0.0000000  1.2552000  3
    639    651    663   1391     1  0.0000000  0.6508444  3
    642    638    639    651     1  180.0000771  2.0083200  2
    642    638    639    651     1  0.0000000  1.2552000  3
    642    638    645    648     1  180.0000771  2.0083200  2
    642    638    645    648     1  0.0000000  1.2552000  3
    642    654    660   1362     1  0.0000000  0.6508444  3
    645    638    639    651     1  180.0000771  2.0083200  2
    645    638    639    651     1  0.0000000  1.2552000  3
    645    638    642    654     1  180.0000771  2.0083200  2
    645    638    642    654     1  0.0000000  1.2552000  3
    645    648    657    666     1  0.0000000  0.6508444  3
    651    663   1391   1382     1  180.0000771  0.4184000  2
    651    663   1391   1382     1  0.0000000  1.6024720  3
    654    660   1362   1353     1  180.0000771  0.4184000  2
    654    660   1362   1353     1  0.0000000  1.6024720  3
    660   1362   1353   1344     1  180.0000771  0.4184000  2
    660   1362   1353   1344     1  0.0000000  1.6024720  3
    663   1391   1382   1373     1  180.0000771  0.4184000  2
    663   1391   1382   1373     1  0.0000000  1.6024720  3
    667    668    680    692     1  0.0000000  0.6508444  3
    667    671    683    689     1  0.0000000  0.6508444  3
    667    674    677    686     1  0.0000000  0.6508444  3
    668    667    671    683     1  180.0000771  2.0083200  2
    668    667    671    683     1  0.0000000  1.2552000  3
    668    667    674    677     1  180.0000771  2.0083200  2
    668    667    674    677     1  0.0000000  1.2552000  3
    668    680    692   1449     1  0.0000000  0.6508444  3
    671    667    668    680     1  180.0000771  2.0083200  2
    671    667    668    680     1  0.0000000  1.2552000  3
    671    667    674    677     1  180.0000771  2.0083200  2
    671    667    674    677     1  0.0000000  1.2552000  3
    671    683    689   1420     1  0.0000000  0.6508444  3
    674    667    668    680     1  180.0000771  2.0083200  2
    674    667    668    680     1  0.0000000  1.2552000  3
    674    667    671    683     1  180.0000771  2.0083200  2
    674    667    671    683     1  0.0000000  1.2552000  3
    674    677    686    695     1  0.0000000  0.6508444  3
    680    692   1449   1440     1  180.0000771  0.4184000  2
    680    692   1449   1440     1  0.0000000  1.6024720  3
    683    689   1420   1411     1  180.0000771  0.4184000  2
    683    689   1420   1411     1  0.0000000  1.6024720  3
    689   1420   1411   1402     1  180.0000771  0.4184000  2
    689   1420   1411   1402     1  0.0000000  1.6024720  3
    692   1449   1440   1431     1  180.0000771  0.4184000  2
    692   1449   1440   1431     1  0.0000000  1.6024720  3
    696    697    709    721     1  0.0000000  0.6508444  3
    696    700    712    718     1  0.0000000  0.6508444  3
    696    703    706    715     1  0.0000000  0.6508444  3
    697    696    700    712     1  180.0000771  2.0083200  2
    697    696    700    712     1  0.0000000  1.2552000  3
    697    696    703    706     1  180.0000771  2.0083200  2
    697    696    703    706     1  0.0000000  1.2552000  3
    697    709    721   1507     1  0.0000000  0.6508444  3
    700    696    697    709     1  180.0000771  2.0083200  2
    700    696    697    709     1  0.0000000  1.2552000  3
    700    696    703    706     1  180.0000771  2.0083200  2
    700    696    703    706     1  0.0000000  1.2552000  3
    700    712    718   1478     1  0.0000000  0.6508444  3
    703    696    697    709     1  180.0000771  2.0083200  2
    703    696    697    709     1  0.0000000  1.2552000  3
    703    696    700    712     1  180.0000771  2.0083200  2
    703    696    700    712     1  0.0000000  1.2552000  3
    703    706    715    724     1  0.0000000  0.6508444  3
    709    721   1507   1498     1  180.0000771  0.4184000  2
    709    721   1507   1498     1  0.0000000  1.6024720  3
    712    718   1478   1469     1  180.0000771  0.4184000  2
    712    718   1478   1469     1  0.0000000  1.6024720  3
    718   1478   1469   1460     1  180.0000771  0.4184000  2
    718   1478   1469   1460     1  0.0000000  1.6024720  3
    721   1507   1498   1489     1  180.0000771  0.4184000  2
    721   1507   1498   1489     1  0.0000000  1.6024720  3
    725    726    738    750     1  0.0000000  0.6508444  3
    725    729    741    747     1  0.0000000  0.6508444  3
    725    732    735    744     1  0.0000000  0.6508444  3
    726    725    729    741     1  180.0000771  2.0083200  2
    726    725    729    741     1  0.0000000  1.2552000  3
    726    725    732    735     1  180.0000771  2.0083200  2
    726    725    732    735     1  0.0000000  1.2552000  3
    726    738    750   1565     1  0.0000000  0.6508444  3
    729    725    726    738     1  180.0000771  2.0083200  2
    729    725    726    738     1  0.0000000  1.2552000  3
    729    725    732    735     1  180.0000771  2.0083200  2
    729    725    732    735     1  0.0000000  1.2552000  3
    729    741    747   1536     1  0.0000000  0.6508444  3
    732    725    726    738     1  180.0000771  2.0083200  2
    732    725    726    738     1  0.0000000  1.2552000  3
    732    725    729    741     1  180.0000771  2.0083200  2
    732    725    729    741     1  0.0000000  1.2552000  3
    732    735    744    753     1  0.0000000  0.6508444  3
    738    750   1565   1556     1  180.0000771  0.4184000  2
    738    750   1565   1556     1  0.0000000  1.6024720  3
    741    747   1536   1527     1  180.0000771  0.4184000  2
    741    747   1536   1527     1  0.0000000  1.6024720  3
    747   1536   1527   1518     1  180.0000771  0.4184000  2
    747   1536   1527   1518     1  0.0000000  1.6024720  3
    750   1565   1556   1547     1  180.0000771  0.4184000  2
    750   1565   1556   1547     1  0.0000000  1.6024720  3
    754    755    767    779     1  0.0000000  0.6508444  3
    754    758    770    776     1  0.0000000  0.6508444  3
    754    761    764    773     1  0.0000000  0.6508444  3
    755    754    758    770     1  180.0000771  2.0083200  2
    755    754    758    770     1  0.0000000  1.2552000  3
    755    754    761    764     1  180.0000771  2.0083200  2
    755    754    761    764     1  0.0000000  1.2552000  3
    755    767    779   1623     1  0.0000000  0.6508444  3
    758    754    755    767     1  180.0000771  2.0083200  2
    758    754    755    767     1  0.0000000  1.2552000  3
    758    754    761    764     1  180.0000771  2.0083200  2
    758    754    761    764     1  0.0000000  1.2552000  3
    758    770    776   1594     1  0.0000000  0.6508444  3
    761    754    755    767     1  180.0000771  2.0083200  2
    761    754    755    767     1  0.0000000  1.2552000  3
    761    754    758    770     1  180.0000771  2.0083200  2
    761    754    758    770     1  0.0000000  1.2552000  3
    761    764    773    782     1  0.0000000  0.6508444  3
    767    779   1623   1614     1  180.0000771  0.4184000  2
    767    779   1623   1614     1  0.0000000  1.6024720  3
    770    776   1594   1585     1  180.0000771  0.4184000  2
    770    776   1594   1585     1  0.0000000  1.6024720  3
    776   1594   1585   1576     1  180.0000771  0.4184000  2
    776   1594   1585   1576     1  0.0000000  1.6024720  3
    779   1623   1614   1605     1  180.0000771  0.4184000  2
    779   1623   1614   1605     1  0.0000000  1.6024720  3
    783    784    796    808     1  0.0000000  0.6508444  3
    783    787    799    805     1  0.0000000  0.6508444  3
    783    790    793    802     1  0.0000000  0.6508444  3
    784    783    787    799     1  180.0000771  2.0083200  2
    784    783    787    799     1  0.0000000  1.2552000  3
    784    783    790    793     1  180.0000771  2.0083200  2
    784    783    790    793     1  0.0000000  1.2552000  3
    784    796    808   1681     1  0.0000000  0.6508444  3
    787    783    784    796     1  180.0000771  2.0083200  2
    787    783    784    796     1  0.0000000  1.2552000  3
    787    783    790    793     1  180.0000771  2.0083200  2
    787    783    790    793     1  0.0000000  1.2552000  3
    787    799    805   1652     1  0.0000000  0.6508444  3
    790    783    784    796     1  180.0000771  2.0083200  2
    790    783    784    796     1  0.0000000  1.2552000  3
    790    783    787    799     1  180.0000771  2.0083200  2
    790    783    787    799     1  0.0000000  1.2552000  3
    790    793    802    811     1  0.0000000  0.6508444  3
    796    808   1681   1672     1  180.0000771  0.4184000  2
    796    808   1681   1672     1  0.0000000  1.6024720  3
    799    805   1652   1643     1  180.0000771  0.4184000  2
    799    805   1652   1643     1  0.0000000  1.6024720  3
    805   1652   1643   1634     1  180.0000771  0.4184000  2
    805   1652   1643   1634     1  0.0000000  1.6024720  3
    808   1681   1672   1663     1  180.0000771  0.4184000  2
    808   1681   1672   1663     1  0.0000000  1.6024720  3
    812    813    825    837     1  0.0000000  0.6508444  3
    812    816    828    834     1  0.0000000  0.6508444  3
    812    819    822    831     1  0.0000000  0.6508444  3
    813    812    816    828     1  180.0000771  2.0083200  2
    813    812    816    828     1  0.0000000  1.2552000  3
    813    812    819    822     1  180.0000771  2.0083200  2
    813    812    819    822     1  0.0000000  1.2552000  3
    813    825    837   1739     1  0.0000000  0.6508444  3
    816    812    813    825     1  180.0000771  2.0083200  2
    816    812    813    825     1  0.0000000  1.2552000  3
    816    812    819    822     1  180.0000771  2.0083200  2
    816    812    819    822     1  0.0000000  1.2552000  3
    816    828    834   1710     1  0.0000000  0.6508444  3
    819    812    813    825     1  180.0000771  2.0083200  2
    819    812    813    825     1  0.0000000  1.2552000  3
    819    812    816    828     1  180.0000771  2.0083200  2
    819    812    816    828     1  0.0000000  1.2552000  3
    819    822    831    840     1  0.0000000  0.6508444  3
    825    837   1739   1730     1  180.0000771  0.4184000  2
    825    837   1739   1730     1  0.0000000  1.6024720  3
    828    834   1710   1701     1  180.0000771  0.4184000  2
    828    834   1710   1701     1  0.0000000  1.6024720  3
    834   1710   1701   1692     1  180.0000771  0.4184000  2
    834   1710   1701   1692     1  0.0000000  1.6024720  3
    837   1739   1730   1721     1  180.0000771  0.4184000  2
    837   1739   1730   1721     1  0.0000000  1.6024720  3
    841    842    854    866     1  0.0000000  0.6508444  3
    841    845    857    863     1  0.0000000  0.6508444  3
    841    848    851    860     1  0.0000000  0.6508444  3
    842    841    845    857     1  180.0000771  2.0083200  2
    842    841    845    857     1  0.0000000  1.2552000  3
    842    841    848    851     1  180.0000771  2.0083200  2
    842    841    848    851     1  0.0000000  1.2552000  3
    842    854    866   1797     1  0.0000000  0.6508444  3
    845    841    842    854     1  180.0000771  2.0083200  2
    845    841    842    854     1  0.0000000  1.2552000  3
    845    841    848    851     1  180.0000771  2.0083200  2
    845    841    848    851     1  0.0000000  1.2552000  3
    845    857    863   1768     1  0.0000000  0.6508444  3
    848    841    842    854     1  180.0000771  2.0083200  2
    848    841    842    854     1  0.0000000  1.2552000  3
    848    841    845    857     1  180.0000771  2.0083200  2
    848    841    845    857     1  0.0000000  1.2552000  3
    848    851    860    869     1  0.0000000  0.6508444  3
    854    866   1797   1788     1  180.0000771  0.4184000  2
    854    866   1797   1788     1  0.0000000  1.6024720  3
    857    863   1768   1759     1  180.0000771  0.4184000  2
    857    863   1768   1759     1  0.0000000  1.6024720  3
    863   1768   1759   1750     1  180.0000771  0.4184000  2
    863   1768   1759   1750     1  0.0000000  1.6024720  3
    866   1797   1788   1779     1  180.0000771  0.4184000  2
    866   1797   1788   1779     1  0.0000000  1.6024720  3
    870    871    883    895     1  0.0000000  0.6508444  3
    870    874    886    892     1  0.0000000  0.6508444  3
    870    877    880    889     1  0.0000000  0.6508444  3
    871    870    874    886     1  180.0000771  2.0083200  2
    871    870    874    886     1  0.0000000  1.2552000  3
    871    870    877    880     1  180.0000771  2.0083200  2
    871    870    877    880     1  0.0000000  1.2552000  3
    871    883    895   1855     1  0.0000000  0.6508444  3
    874    870    871    883     1  180.0000771  2.0083200  2
    874    870    871    883     1  0.0000000  1.2552000  3
    874    870    877    880     1  180.0000771  2.0083200  2
    874    870    877    880     1  0.0000000  1.2552000  3
    874    886    892   1826     1  0.0000000  0.6508444  3
    877    870    871    883     1  180.0000771  2.0083200  2
    877    870    871    883     1  0.0000000  1.2552000  3
    877    870    874    886     1  180.0000771  2.0083200  2
    877    870    874    886     1  0.0000000  1.2552000  3
    877    880    889    898     1  0.0000000  0.6508444  3
    883    895   1855   1846     1  180.0000771  0.4184000  2
    883    895   1855   1846     1  0.0000000  1.6024720  3
    886    892   1826   1817     1  180.0000771  0.4184000  2
    886    892   1826   1817     1  0.0000000  1.6024720  3
    892   1826   1817   1808     1  180.0000771  0.4184000  2
    892   1826   1817   1808     1  0.0000000  1.6024720  3
    895   1855   1846   1837     1  180.0000771  0.4184000  2
    895   1855   1846   1837     1  0.0000000  1.6024720  3
    899    900    912    924     1  0.0000000  0.6508444  3
    899    903    915    921     1  0.0000000  0.6508444  3
    899    906    909    918     1  0.0000000  0.6508444  3
    900    899    903    915     1  180.0000771  2.0083200  2
    900    899    903    915     1  0.0000000  1.2552000  3
    900    899    906    909     1  180.0000771  2.0083200  2
    900    899    906    909     1  0.0000000  1.2552000  3
    900    912    924   1913     1  0.0000000  0.6508444  3
    903    899    900    912     1  180.0000771  2.0083200  2
    903    899    900    912     1  0.0000000  1.2552000  3
    903    899    906    909     1  180.0000771  2.0083200  2
    903    899    906    909     1  0.0000000  1.2552000  3
    903    915    921   1884     1  0.0000000  0.6508444  3
    906    899    900    912     1  180.0000771  2.0083200  2
    906    899    900    912     1  0.0000000  1.2552000  3
    906    899    903    915     1  180.0000771  2.0083200  2
    906    899    903    915     1  0.0000000  1.2552000  3
    906    909    918    927     1  0.0000000  0.6508444  3
    912    924   1913   1904     1  180.0000771  0.4184000  2
    912    924   1913   1904     1  0.0000000  1.6024720  3
    915    921   1884   1875     1  180.0000771  0.4184000  2
    915    921   1884   1875     1  0.0000000  1.6024720  3
    921   1884   1875   1866     1  180.0000771  0.4184000  2
    921   1884   1875   1866     1  0.0000000  1.6024720  3
    924   1913   1904   1895     1  180.0000771  0.4184000  2
    924   1913   1904   1895     1  0.0000000  1.6024720  3
    928    929    941    953     1  0.0000000  0.6508444  3
    928    932    944    950     1  0.0000000  0.6508444  3
    928    935    938    947     1  0.0000000  0.6508444  3
    929    928    932    944     1  180.0000771  2.0083200  2
    929    928    932    944     1  0.0000000  1.2552000  3
    929    928    935    938     1  180.0000771  2.0083200  2
    929    928    935    938     1  0.0000000  1.2552000  3
    929    941    953   1971     1  0.0000000  0.6508444  3
    932    928    929    941     1  180.0000771  2.0083200  2
    932    928    929    941     1  0.0000000  1.2552000  3
    932    928    935    938     1  180.0000771  2.0083200  2
    932    928    935    938     1  0.0000000  1.2552000  3
    932    944    950   1942     1  0.0000000  0.6508444  3
    935    928    929    941     1  180.0000771  2.0083200  2
    935    928    929    941     1  0.0000000  1.2552000  3
    935    928    932    944     1  180.0000771  2.0083200  2
    935    928    932    944     1  0.0000000  1.2552000  3
    935    938    947    956     1  0.0000000  0.6508444  3
    941    953   1971   1962     1  180.0000771  0.4184000  2
    941    953   1971   1962     1  0.0000000  1.6024720  3
    944    950   1942   1933     1  180.0000771  0.4184000  2
    944    950   1942   1933     1  0.0000000  1.6024720  3
    950   1942   1933   1924     1  180.0000771  0.4184000  2
    950   1942   1933   1924     1  0.0000000  1.6024720  3
    953   1971   1962   1953     1  180.0000771  0.4184000  2
    953   1971   1962   1953     1  0.0000000  1.6024720  3
    957    958    970    982     1  0.0000000  0.6508444  3
    957    961    973    979     1  0.0000000  0.6508444  3
    957    964    967    976     1  0.0000000  0.6508444  3
    958    957    961    973     1  180.0000771  2.0083200  2
    958    957    961    973     1  0.0000000  1.2552000  3
    958    957    964    967     1  180.0000771  2.0083200  2
    958    957    964    967     1  0.0000000  1.2552000  3
    958    970    982   2029     1  0.0000000  0.6508444  3
    961    957    958    970     1  180.0000771  2.0083200  2
    961    957    958    970     1  0.0000000  1.2552000  3
    961    957    964    967     1  180.0000771  2.0083200  2
    961    957    964    967     1  0.0000000  1.2552000  3
    961    973    979   2000     1  0.0000000  0.6508444  3
    964    957    958    970     1  180.0000771  2.0083200  2
    964    957    958    970     1  0.0000000  1.2552000  3
    964    957    961    973     1  180.0000771  2.0083200  2
    964    957    961    973     1  0.0000000  1.2552000  3
    964    967    976    985     1  0.0000000  0.6508444  3
    970    982   2029   2020     1  180.0000771  0.4184000  2
    970    982   2029   2020     1  0.0000000  1.6024720  3
    973    979   2000   1991     1  180.0000771  0.4184000  2
    973    979   2000   1991     1  0.0000000  1.6024720  3
    979   2000   1991   1982     1  180.0000771  0.4184000  2
    979   2000   1991   1982     1  0.0000000  1.6024720  3
    982   2029   2020   2011     1  180.0000771  0.4184000  2
    982   2029   2020   2011     1  0.0000000  1.6024720  3
    986    987    999   1011     1  0.0000000  0.6508444  3
    986    990   1002   1008     1  0.0000000  0.6508444  3
    986    993    996   1005     1  0.0000000  0.6508444  3
    987    986    990   1002     1  180.0000771  2.0083200  2
    987    986    990   1002     1  0.0000000  1.2552000  3
    987    986    993    996     1  180.0000771  2.0083200  2
    987    986    993    996     1  0.0000000  1.2552000  3
    987    999   1011   2087     1  0.0000000  0.6508444  3
    990    986    987    999     1  180.0000771  2.0083200  2
    990    986    987    999     1  0.0000000  1.2552000  3
    990    986    993    996     1  180.0000771  2.0083200  2
    990    986    993    996     1  0.0000000  1.2552000  3
    990   1002   1008   2058     1  0.0000000  0.6508444  3
    993    986    987    999     1  180.0000771  2.0083200  2
    993    986    987    999     1  0.0000000  1.2552000  3
    993    986    990   1002     1  180.0000771  2.0083200  2
    993    986    990   1002     1  0.0000000  1.2552000  3
    993    996   1005   1014     1  0.0000000  0.6508444  3
    999   1011   2087   2078     1  180.0000771  0.4184000  2
    999   1011   2087   2078     1  0.0000000  1.6024720  3
   1002   1008   2058   2049     1  180.0000771  0.4184000  2
   1002   1008   2058   2049     1  0.0000000  1.6024720  3
   1008   2058   2049   2040     1  180.0000771  0.4184000  2
   1008   2058   2049   2040     1  0.0000000  1.6024720  3
   1011   2087   2078   2069     1  180.0000771  0.4184000  2
   1011   2087   2078   2069     1  0.0000000  1.6024720  3
   1015   1016   1028   1040     1  0.0000000  0.6508444  3
   1015   1019   1031   1037     1  0.0000000  0.6508444  3
   1015   1022   1025   1034     1  0.0000000  0.6508444  3
   1016   1015   1019   1031     1  180.0000771  2.0083200  2
   1016   1015   1019   1031     1  0.0000000  1.2552000  3
   1016   1015   1022   1025     1  180.0000771  2.0083200  2
   1016   1015   1022   1025     1  0.0000000  1.2552000  3
   1016   1028   1040   2145     1  0.0000000  0.6508444  3
   1019   1015   1016   1028     1  180.0000771  2.0083200  2
   1019   1015   1016   1028     1  0.0000000  1.2552000  3
   1019   1015   1022   1025     1  180.0000771  2.0083200  2
   1019   1015   1022   1025     1  0.0000000  1.2552000  3
   1019   1031   1037   2116     1  0.0000000  0.6508444  3
   1022   1015   1016   1028     1  180.0000771  2.0083200  2
   1022   1015   1016   1028     1  0.0000000  1.2552000  3
   1022   1015   1019   1031     1  180.0000771  2.0083200  2
   1022   1015   1019   1031     1  0.0000000  1.2552000  3
   1022   1025   1034   1043     1  0.0000000  0.6508444  3
   1028   1040   2145   2136     1  180.0000771  0.4184000  2
   1028   1040   2145   2136     1  0.0000000  1.6024720  3
   1031   1037   2116   2107     1  180.0000771  0.4184000  2
   1031   1037   2116   2107     1  0.0000000  1.6024720  3
   1037   2116   2107   2098     1  180.0000771  0.4184000  2
   1037   2116   2107   2098     1  0.0000000  1.6024720  3
   1040   2145   2136   2127     1  180.0000771  0.4184000  2
   1040   2145   2136   2127     1  0.0000000  1.6024720  3
   1044   1045   1057   1069     1  0.0000000  0.6508444  3
   1044   1048   1060   1066     1  0.0000000  0.6508444  3
   1044   1051   1054   1063     1  0.0000000  0.6508444  3
   1045   1044   1048   1060     1  180.0000771  2.0083200  2
   1045   1044   1048   1060     1  0.0000000  1.2552000  3
   1045   1044   1051   1054     1  180.0000771  2.0083200  2
   1045   1044   1051   1054     1  0.0000000  1.2552000  3
   1045   1057   1069   2203     1  0.0000000  0.6508444  3
   1048   1044   1045   1057     1  180.0000771  2.0083200  2
   1048   1044   1045   1057     1  0.0000000  1.2552000  3
   1048   1044   1051   1054     1  180.0000771  2.0083200  2
   1048   1044   1051   1054     1  0.0000000  1.2552000  3
   1048   1060   1066   2174     1  0.0000000  0.6508444  3
   1051   1044   1045   1057     1  180.0000771  2.0083200  2
   1051   1044   1045   1057     1  0.0000000  1.2552000  3
   1051   1044   1048   1060     1  180.0000771  2.0083200  2
   1051   1044   1048   1060     1  0.0000000  1.2552000  3
   1051   1054   1063   1072     1  0.0000000  0.6508444  3
   1057   1069   2203   2194     1  180.0000771  0.4184000  2
   1057   1069   2203   2194     1  0.0000000  1.6024720  3
   1060   1066   2174   2165     1  180.0000771  0.4184000  2
   1060   1066   2174   2165     1  0.0000000  1.6024720  3
   1066   2174   2165   2156     1  180.0000771  0.4184000  2
   1066   2174   2165   2156     1  0.0000000  1.6024720  3
   1069   2203   2194   2185     1  180.0000771  0.4184000  2
   1069   2203   2194   2185     1  0.0000000  1.6024720  3
   1073   1074   1086   1098     1  0.0000000  0.6508444  3
   1073   1077   1089   1095     1  0.0000000  0.6508444  3
   1073   1080   1083   1092     1  0.0000000  0.6508444  3
   1074   1073   1077   1089     1  180.0000771  2.0083200  2
   1074   1073   1077   1089     1  0.0000000  1.2552000  3
   1074   1073   1080   1083     1  180.0000771  2.0083200  2
   1074   1073   1080   1083     1  0.0000000  1.2552000  3
   1074   1086   1098   2261     1  0.0000000  0.6508444  3
   1077   1073   1074   1086     1  180.0000771  2.0083200  2
   1077   1073   1074   1086     1  0.0000000  1.2552000  3
   1077   1073   1080   1083     1  180.0000771  2.0083200  2
   1077   1073   1080   1083     1  0.0000000  1.2552000  3
   1077   1089   1095   2232     1  0.0000000  0.6508444  3
   1080   1073   1074   1086     1  180.0000771  2.0083200  2
   1080   1073   1074   1086     1  0.0000000  1.2552000  3
   1080   1073   1077   1089     1  180.0000771  2.0083200  2
   1080   1073   1077   1089     1  0.0000000  1.2552000  3
   1080   1083   1092   1101     1  0.0000000  0.6508444  3
   1086   1098   2261   2252     1  180.0000771  0.4184000  2
   1086   1098   2261   2252     1  0.0000000  1.6024720  3
   1089   1095   2232   2223     1  180.0000771  0.4184000  2
   1089   1095   2232   2223     1  0.0000000  1.6024720  3
   1095   2232   2223   2214     1  180.0000771  0.4184000  2
   1095   2232   2223   2214     1  0.0000000  1.6024720  3
   1098   2261   2252   2243     1  180.0000771  0.4184000  2
   1098   2261   2252   2243     1  0.0000000  1.6024720  3
   1102   1103   1115   1127     1  0.0000000  0.6508444  3
   1102   1106   1118   1124     1  0.0000000  0.6508444  3
   1102   1109   1112   1121     1  0.0000000  0.6508444  3
   1103   1102   1106   1118     1  180.0000771  2.0083200  2
   1103   1102   1106   1118     1  0.0000000  1.2552000  3
   1103   1102   1109   1112     1  180.0000771  2.0083200  2
   1103   1102   1109   1112     1  0.0000000  1.2552000  3
   1103   1115   1127   2319     1  0.0000000  0.6508444  3
   1106   1102   1103   1115     1  180.0000771  2.0083200  2
   1106   1102   1103   1115     1  0.0000000  1.2552000  3
   1106   1102   1109   1112     1  180.0000771  2.0083200  2
   1106   1102   1109   1112     1  0.0000000  1.2552000  3
   1106   1118   1124   2290     1  0.0000000  0.6508444  3
   1109   1102   1103   1115     1  180.0000771  2.0083200  2
   1109   1102   1103   1115     1  0.0000000  1.2552000  3
   1109   1102   1106   1118     1  180.0000771  2.0083200  2
   1109   1102   1106   1118     1  0.0000000  1.2552000  3
   1109   1112   1121   1130     1  0.0000000  0.6508444  3
   1115   1127   2319   2310     1  180.0000771  0.4184000  2
   1115   1127   2319   2310     1  0.0000000  1.6024720  3
   1118   1124   2290   2281     1  180.0000771  0.4184000  2
   1118   1124   2290   2281     1  0.0000000  1.6024720  3
   1124   2290   2281   2272     1  180.0000771  0.4184000  2
   1124   2290   2281   2272     1  0.0000000  1.6024720  3
   1127   2319   2310   2301     1  180.0000771  0.4184000  2
   1127   2319   2310   2301     1  0.0000000  1.6024720  3
   1131   1132   1144   1156     1  0.0000000  0.6508444  3
   1131   1135   1147   1153     1  0.0000000  0.6508444  3
   1131   1138   1141   1150     1  0.0000000  0.6508444  3
   1132   1131   1135   1147     1  180.0000771  2.0083200  2
   1132   1131   1135   1147     1  0.0000000  1.2552000  3
   1132   1131   1138   1141     1  180.0000771  2.0083200  2
   1132   1131   1138   1141     1  0.0000000  1.2552000  3
   1132   1144   1156   2377     1  0.0000000  0.6508444  3
   1135   1131   1132   1144     1  180.0000771  2.0083200  2
   1135   1131   1132   1144     1  0.0000000  1.2552000  3
   1135   1131   1138   1141     1  180.0000771  2.0083200  2
   1135   1131   1138   1141     1  0.0000000  1.2552000  3
   1135   1147   1153   2348     1  0.0000000  0.6508444  3
   1138   1131   1132   1144     1  180.0000771  2.0083200  2
   1138   1131   1132   1144     1  0.0000000  1.2552000  3
   1138   1131   1135   1147     1  180.0000771  2.0083200  2
   1138   1131   1135   1147     1  0.0000000  1.2552000  3
   1138   1141   1150   1159     1  0.0000000  0.6508444  3
   1144   1156   2377   2368     1  180.0000771  0.4184000  2
   1144   1156   2377   2368     1  0.0000000  1.6024720  3
   1147   1153   2348   2339     1  180.0000771  0.4184000  2
   1147   1153   2348   2339     1  0.0000000  1.6024720  3
   1153   2348   2339   2330     1  180.0000771  0.4184000  2
   1153   2348   2339   2330     1  0.0000000  1.6024720  3
   1156   2377   2368   2359     1  180.0000771  0.4184000  2
   1156   2377   2368   2359     1  0.0000000  1.6024720  3
   1160   1161   1173   1185     1  0.0000000  0.6508444  3
   1160   1164   1176   1182     1  0.0000000  0.6508444  3
   1160   1167   1170   1179     1  0.0000000  0.6508444  3
   1161   1160   1164   1176     1  180.0000771  2.0083200  2
   1161   1160   1164   1176     1  0.0000000  1.2552000  3
   1161   1160   1167   1170     1  180.0000771  2.0083200  2
   1161   1160   1167   1170     1  0.0000000  1.2552000  3
   1161   1173   1185   2435     1  0.0000000  0.6508444  3
   1164   1160   1161   1173     1  180.0000771  2.0083200  2
   1164   1160   1161   1173     1  0.0000000  1.2552000  3
   1164   1160   1167   1170     1  180.0000771  2.0083200  2
   1164   1160   1167   1170     1  0.0000000  1.2552000  3
   1164   1176   1182   2406     1  0.0000000  0.6508444  3
   1167   1160   1161   1173     1  180.0000771  2.0083200  2
   1167   1160   1161   1173     1  0.0000000  1.2552000  3
   1167   1160   1164   1176     1  180.0000771  2.0083200  2
   1167   1160   1164   1176     1  0.0000000  1.2552000  3
   1167   1170   1179   1188     1  0.0000000  0.6508444  3
   1173   1185   2435   2426     1  180.0000771  0.4184000  2
   1173   1185   2435   2426     1  0.0000000  1.6024720  3
   1176   1182   2406   2397     1  180.0000771  0.4184000  2
   1176   1182   2406   2397     1  0.0000000  1.6024720  3
   1182   2406   2397   2388     1  180.0000771  0.4184000  2
   1182   2406   2397   2388     1  0.0000000  1.6024720  3
   1185   2435   2426   2417     1  180.0000771  0.4184000  2
   1185   2435   2426   2417     1  0.0000000  1.6024720  3
   1189   1190   1202   1214     1  0.0000000  0.6508444  3
   1189   1193   1205   1211     1  0.0000000  0.6508444  3
   1189   1196   1199   1208     1  0.0000000  0.6508444  3
   1190   1189   1193   1205     1  180.0000771  2.0083200  2
   1190   1189   1193   1205     1  0.0000000  1.2552000  3
   1190   1189   1196   1199     1  180.0000771  2.0083200  2
   1190   1189   1196   1199     1  0.0000000  1.2552000  3
   1190   1202   1214   2493     1  0.0000000  0.6508444  3
   1193   1189   1190   1202     1  180.0000771  2.0083200  2
   1193   1189   1190   1202     1  0.0000000  1.2552000  3
   1193   1189   1196   1199     1  180.0000771  2.0083200  2
   1193   1189   1196   1199     1  0.0000000  1.2552000  3
   1193   1205   1211   2464     1  0.0000000  0.6508444  3
   1196   1189   1190   1202     1  180.0000771  2.0083200  2
   1196   1189   1190   1202     1  0.0000000  1.2552000  3
   1196   1189   1193   1205     1  180.0000771  2.0083200  2
   1196   1189   1193   1205     1  0.0000000  1.2552000  3
   1196   1199   1208   1217     1  0.0000000  0.6508444  3
   1202   1214   2493   2484     1  180.0000771  0.4184000  2
   1202   1214   2493   2484     1  0.0000000  1.6024720  3
   1205   1211   2464   2455     1  180.0000771  0.4184000  2
   1205   1211   2464   2455     1  0.0000000  1.6024720  3
   1211   2464   2455   2446     1  180.0000771  0.4184000  2
   1211   2464   2455   2446     1  0.0000000  1.6024720  3
   1214   2493   2484   2475     1  180.0000771  0.4184000  2
   1214   2493   2484   2475     1  0.0000000  1.6024720  3
   1218   1219   1231   1243     1  0.0000000  0.6508444  3
   1218   1222   1234   1240     1  0.0000000  0.6508444  3
   1218   1225   1228   1237     1  0.0000000  0.6508444  3
   1219   1218   1222   1234     1  180.0000771  2.0083200  2
   1219   1218   1222   1234     1  0.0000000  1.2552000  3
   1219   1218   1225   1228     1  180.0000771  2.0083200  2
   1219   1218   1225   1228     1  0.0000000  1.2552000  3
   1219   1231   1243   2551     1  0.0000000  0.6508444  3
   1222   1218   1219   1231     1  180.0000771  2.0083200  2
   1222   1218   1219   1231     1  0.0000000  1.2552000  3
   1222   1218   1225   1228     1  180.0000771  2.0083200  2
   1222   1218   1225   1228     1  0.0000000  1.2552000  3
   1222   1234   1240   2522     1  0.0000000  0.6508444  3
   1225   1218   1219   1231     1  180.0000771  2.0083200  2
   1225   1218   1219   1231     1  0.0000000  1.2552000  3
   1225   1218   1222   1234     1  180.0000771  2.0083200  2
   1225   1218   1222   1234     1  0.0000000  1.2552000  3
   1225   1228   1237   1246     1  0.0000000  0.6508444  3
   1231   1243   2551   2542     1  180.0000771  0.4184000  2
   1231   1243   2551   2542     1  0.0000000  1.6024720  3
   1234   1240   2522   2513     1  180.0000771  0.4184000  2
   1234   1240   2522   2513     1  0.0000000  1.6024720  3
   1240   2522   2513   2504     1  180.0000771  0.4184000  2
   1240   2522   2513   2504     1  0.0000000  1.6024720  3
   1243   2551   2542   2533     1  180.0000771  0.4184000  2
   1243   2551   2542   2533     1  0.0000000  1.6024720  3
   1247   1248   1260   1272     1  0.0000000  0.6508444  3
   1247   1251   1263   1269     1  0.0000000  0.6508444  3
   1247   1254   1257   1266     1  0.0000000  0.6508444  3
   1248   1247   1251   1263     1  180.0000771  2.0083200  2
   1248   1247   1251   1263     1  0.0000000  1.2552000  3
   1248   1247   1254   1257     1  180.0000771  2.0083200  2
   1248   1247   1254   1257     1  0.0000000  1.2552000  3
   1248   1260   1272   2609     1  0.0000000  0.6508444  3
   1251   1247   1248   1260     1  180.0000771  2.0083200  2
   1251   1247   1248   1260     1  0.0000000  1.2552000  3
   1251   1247   1254   1257     1  180.0000771  2.0083200  2
   1251   1247   1254   1257     1  0.0000000  1.2552000  3
   1251   1263   1269   2580     1  0.0000000  0.6508444  3
   1254   1247   1248   1260     1  180.0000771  2.0083200  2
   1254   1247   1248   1260     1  0.0000000  1.2552000  3
   1254   1247   1251   1263     1  180.0000771  2.0083200  2
   1254   1247   1251   1263     1  0.0000000  1.2552000  3
   1254   1257   1266   1275     1  0.0000000  0.6508444  3
   1260   1272   2609   2600     1  180.0000771  0.4184000  2
   1260   1272   2609   2600     1  0.0000000  1.6024720  3
   1263   1269   2580   2571     1  180.0000771  0.4184000  2
   1263   1269   2580   2571     1  0.0000000  1.6024720  3
   1269   2580   2571   2562     1  180.0000771  0.4184000  2
   1269   2580   2571   2562     1  0.0000000  1.6024720  3
   1272   2609   2600   2591     1  180.0000771  0.4184000  2
   1272   2609   2600   2591     1  0.0000000  1.6024720  3
   1276   1277   1289   1301     1  0.0000000  0.6508444  3
   1276   1280   1292   1298     1  0.0000000  0.6508444  3
   1276   1283   1286   1295     1  0.0000000  0.6508444  3
   1277   1276   1280   1292     1  180.0000771  2.0083200  2
   1277   1276   1280   1292     1  0.0000000  1.2552000  3
   1277   1276   1283   1286     1  180.0000771  2.0083200  2
   1277   1276   1283   1286     1  0.0000000  1.2552000  3
   1277   1289   1301   2667     1  0.0000000  0.6508444  3
   1280   1276   1277   1289     1  180.0000771  2.0083200  2
   1280   1276   1277   1289     1  0.0000000  1.2552000  3
   1280   1276   1283   1286     1  180.0000771  2.0083200  2
   1280   1276   1283   1286     1  0.0000000  1.2552000  3
   1280   1292   1298   2638     1  0.0000000  0.6508444  3
   1283   1276   1277   1289     1  180.0000771  2.0083200  2
   1283   1276   1277   1289     1  0.0000000  1.2552000  3
   1283   1276   1280   1292     1  180.0000771  2.0083200  2
   1283   1276   1280   1292     1  0.0000000  1.2552000  3
   1283   1286   1295   1304     1  0.0000000  0.6508444  3
   1289   1301   2667   2658     1  180.0000771  0.4184000  2
   1289   1301   2667   2658     1  0.0000000  1.6024720  3
   1292   1298   2638   2629     1  180.0000771  0.4184000  2
   1292   1298   2638   2629     1  0.0000000  1.6024720  3
   1298   2638   2629   2620     1  180.0000771  0.4184000  2
   1298   2638   2629   2620     1  0.0000000  1.6024720  3
   1301   2667   2658   2649     1  180.0000771  0.4184000  2
   1301   2667   2658   2649     1  0.0000000  1.6024720  3
   1305   1306   1318   1330     1  0.0000000  0.6508444  3
   1305   1309   1321   1327     1  0.0000000  0.6508444  3
   1305   1312   1315   1324     1  0.0000000  0.6508444  3
   1306   1305   1309   1321     1  180.0000771  2.0083200  2
   1306   1305   1309   1321     1  0.0000000  1.2552000  3
   1306   1305   1312   1315     1  180.0000771  2.0083200  2
   1306   1305   1312   1315     1  0.0000000  1.2552000  3
   1306   1318   1330   2725     1  0.0000000  0.6508444  3
   1309   1305   1306   1318     1  180.0000771  2.0083200  2
   1309   1305   1306   1318     1  0.0000000  1.2552000  3
   1309   1305   1312   1315     1  180.0000771  2.0083200  2
   1309   1305   1312   1315     1  0.0000000  1.2552000  3
   1309   1321   1327   2696     1  0.0000000  0.6508444  3
   1312   1305   1306   1318     1  180.0000771  2.0083200  2
   1312   1305   1306   1318     1  0.0000000  1.2552000  3
   1312   1305   1309   1321     1  180.0000771  2.0083200  2
   1312   1305   1309   1321     1  0.0000000  1.2552000  3
   1312   1315   1324   1333     1  0.0000000  0.6508444  3
   1318   1330   2725   2716     1  180.0000771  0.4184000  2
   1318   1330   2725   2716     1  0.0000000  1.6024720  3
   1321   1327   2696   2687     1  180.0000771  0.4184000  2
   1321   1327   2696   2687     1  0.0000000  1.6024720  3
   1327   2696   2687   2678     1  180.0000771  0.4184000  2
   1327   2696   2687   2678     1  0.0000000  1.6024720  3
   1330   2725   2716   2707     1  180.0000771  0.4184000  2
   1330   2725   2716   2707     1  0.0000000  1.6024720  3
   1334   1335   1347   1359     1  0.0000000  0.6508444  3
   1334   1338   1350   1356     1  0.0000000  0.6508444  3
   1334   1341   1344   1353     1  0.0000000  0.6508444  3
   1335   1334   1338   1350     1  180.0000771  2.0083200  2
   1335   1334   1338   1350     1  0.0000000  1.2552000  3
   1335   1334   1341   1344     1  180.0000771  2.0083200  2
   1335   1334   1341   1344     1  0.0000000  1.2552000  3
   1335   1347   1359   2787     1  0.0000000  0.6508444  3
   1338   1334   1335   1347     1  180.0000771  2.0083200  2
   1338   1334   1335   1347     1  0.0000000  1.2552000  3
   1338   1334   1341   1344     1  180.0000771  2.0083200  2
   1338   1334   1341   1344     1  0.0000000  1.2552000  3
   1338   1350   1356   2756     1  0.0000000  0.6508444  3
   1341   1334   1335   1347     1  180.0000771  2.0083200  2
   1341   1334   1335   1347     1  0.0000000  1.2552000  3
   1341   1334   1338   1350     1  180.0000771  2.0083200  2
   1341   1334   1338   1350     1  0.0000000  1.2552000  3
   1341   1344   1353   1362     1  0.0000000  0.6508444  3
   1347   1359   2787   2757     1  180.0000771  0.4184000  2
   1347   1359   2787   2757     1  0.0000000  1.6024720  3
   1350   1356   2756   2726     1  180.0000771  0.4184000  2
   1350   1356   2756   2726     1  0.0000000  1.6024720  3
   1356   2756   2726   2729     1  180.0000771  0.4184000  2
   1356   2756   2726   2729     1  0.0000000  1.6024720  3
   1359   2787   2757   2760     1  180.0000771  0.4184000  2
   1359   2787   2757   2760     1  0.0000000  1.6024720  3
   1363   1364   1376   1388     1  0.0000000  0.6508444  3
   1363   1367   1379   1385     1  0.0000000  0.6508444  3
   1363   1370   1373   1382     1  0.0000000  0.6508444  3
   1364   1363   1367   1379     1  180.0000771  2.0083200  2
   1364   1363   1367   1379     1  0.0000000  1.2552000  3
   1364   1363   1370   1373     1  180.0000771  2.0083200  2
   1364   1363   1370   1373     1  0.0000000  1.2552000  3
   1364   1376   1388   2849     1  0.0000000  0.6508444  3
   1367   1363   1364   1376     1  180.0000771  2.0083200  2
   1367   1363   1364   1376     1  0.0000000  1.2552000  3
   1367   1363   1370   1373     1  180.0000771  2.0083200  2
   1367   1363   1370   1373     1  0.0000000  1.2552000  3
   1367   1379   1385   2818     1  0.0000000  0.6508444  3
   1370   1363   1364   1376     1  180.0000771  2.0083200  2
   1370   1363   1364   1376     1  0.0000000  1.2552000  3
   1370   1363   1367   1379     1  180.0000771  2.0083200  2
   1370   1363   1367   1379     1  0.0000000  1.2552000  3
   1370   1373   1382   1391     1  0.0000000  0.6508444  3
   1376   1388   2849   2819     1  180.0000771  0.4184000  2
   1376   1388   2849   2819     1  0.0000000  1.6024720  3
   1379   1385   2818   2788     1  180.0000771  0.4184000  2
   1379   1385   2818   2788     1  0.0000000  1.6024720  3
   1385   2818   2788   2791     1  180.0000771  0.4184000  2
   1385   2818   2788   2791     1  0.0000000  1.6024720  3
   1388   2849   2819   2822     1  180.0000771  0.4184000  2
   1388   2849   2819   2822     1  0.0000000  1.6024720  3
   1392   1393   1405   1417     1  0.0000000  0.6508444  3
   1392   1396   1408   1414     1  0.0000000  0.6508444  3
   1392   1399   1402   1411     1  0.0000000  0.6508444  3
   1393   1392   1396   1408     1  180.0000771  2.0083200  2
   1393   1392   1396   1408     1  0.0000000  1.2552000  3
   1393   1392   1399   1402     1  180.0000771  2.0083200  2
   1393   1392   1399   1402     1  0.0000000  1.2552000  3
   1393   1405   1417   2911     1  0.0000000  0.6508444  3
   1396   1392   1393   1405     1  180.0000771  2.0083200  2
   1396   1392   1393   1405     1  0.0000000  1.2552000  3
   1396   1392   1399   1402     1  180.0000771  2.0083200  2
   1396   1392   1399   1402     1  0.0000000  1.2552000  3
   1396   1408   1414   2880     1  0.0000000  0.6508444  3
   1399   1392   1393   1405     1  180.0000771  2.0083200  2
   1399   1392   1393   1405     1  0.0000000  1.2552000  3
   1399   1392   1396   1408     1  180.0000771  2.0083200  2
   1399   1392   1396   1408     1  0.0000000  1.2552000  3
   1399   1402   1411   1420     1  0.0000000  0.6508444  3
   1405   1417   2911   2881     1  180.0000771  0.4184000  2
   1405   1417   2911   2881     1  0.0000000  1.6024720  3
   1408   1414   2880   2850     1  180.0000771  0.4184000  2
   1408   1414   2880   2850     1  0.0000000  1.6024720  3
   1414   2880   2850   2853     1  180.0000771  0.4184000  2
   1414   2880   2850   2853     1  0.0000000  1.6024720  3
   1417   2911   2881   2884     1  180.0000771  0.4184000  2
   1417   2911   2881   2884     1  0.0000000  1.6024720  3
   1421   1422   1434   1446     1  0.0000000  0.6508444  3
   1421   1425   1437   1443     1  0.0000000  0.6508444  3
   1421   1428   1431   1440     1  0.0000000  0.6508444  3
   1422   1421   1425   1437     1  180.0000771  2.0083200  2
   1422   1421   1425   1437     1  0.0000000  1.2552000  3
   1422   1421   1428   1431     1  180.0000771  2.0083200  2
   1422   1421   1428   1431     1  0.0000000  1.2552000  3
   1422   1434   1446   2973     1  0.0000000  0.6508444  3
   1425   1421   1422   1434     1  180.0000771  2.0083200  2
   1425   1421   1422   1434     1  0.0000000  1.2552000  3
   1425   1421   1428   1431     1  180.0000771  2.0083200  2
   1425   1421   1428   1431     1  0.0000000  1.2552000  3
   1425   1437   1443   2942     1  0.0000000  0.6508444  3
   1428   1421   1422   1434     1  180.0000771  2.0083200  2
   1428   1421   1422   1434     1  0.0000000  1.2552000  3
   1428   1421   1425   1437     1  180.0000771  2.0083200  2
   1428   1421   1425   1437     1  0.0000000  1.2552000  3
   1428   1431   1440   1449     1  0.0000000  0.6508444  3
   1434   1446   2973   2943     1  180.0000771  0.4184000  2
   1434   1446   2973   2943     1  0.0000000  1.6024720  3
   1437   1443   2942   2912     1  180.0000771  0.4184000  2
   1437   1443   2942   2912     1  0.0000000  1.6024720  3
   1443   2942   2912   2915     1  180.0000771  0.4184000  2
   1443   2942   2912   2915     1  0.0000000  1.6024720  3
   1446   2973   2943   2946     1  180.0000771  0.4184000  2
   1446   2973   2943   2946     1  0.0000000  1.6024720  3
   1450   1451   1463   1475     1  0.0000000  0.6508444  3
   1450   1454   1466   1472     1  0.0000000  0.6508444  3
   1450   1457   1460   1469     1  0.0000000  0.6508444  3
   1451   1450   1454   1466     1  180.0000771  2.0083200  2
   1451   1450   1454   1466     1  0.0000000  1.2552000  3
   1451   1450   1457   1460     1  180.0000771  2.0083200  2
   1451   1450   1457   1460     1  0.0000000  1.2552000  3
   1451   1463   1475   3035     1  0.0000000  0.6508444  3
   1454   1450   1451   1463     1  180.0000771  2.0083200  2
   1454   1450   1451   1463     1  0.0000000  1.2552000  3
   1454   1450   1457   1460     1  180.0000771  2.0083200  2
   1454   1450   1457   1460     1  0.0000000  1.2552000  3
   1454   1466   1472   3004     1  0.0000000  0.6508444  3
   1457   1450   1451   1463     1  180.0000771  2.0083200  2
   1457   1450   1451   1463     1  0.0000000  1.2552000  3
   1457   1450   1454   1466     1  180.0000771  2.0083200  2
   1457   1450   1454   1466     1  0.0000000  1.2552000  3
   1457   1460   1469   1478     1  0.0000000  0.6508444  3
   1463   1475   3035   3005     1  180.0000771  0.4184000  2
   1463   1475   3035   3005     1  0.0000000  1.6024720  3
   1466   1472   3004   2974     1  180.0000771  0.4184000  2
   1466   1472   3004   2974     1  0.0000000  1.6024720  3
   1472   3004   2974   2977     1  180.0000771  0.4184000  2
   1472   3004   2974   2977     1  0.0000000  1.6024720  3
   1475   3035   3005   3008     1  180.0000771  0.4184000  2
   1475   3035   3005   3008     1  0.0000000  1.6024720  3
   1479   1480   1492   1504     1  0.0000000  0.6508444  3
   1479   1483   1495   1501     1  0.0000000  0.6508444  3
   1479   1486   1489   1498     1  0.0000000  0.6508444  3
   1480   1479   1483   1495     1  180.0000771  2.0083200  2
   1480   1479   1483   1495     1  0.0000000  1.2552000  3
   1480   1479   1486   1489     1  180.0000771  2.0083200  2
   1480   1479   1486   1489     1  0.0000000  1.2552000  3
   1480   1492   1504   3097     1  0.0000000  0.6508444  3
   1483   1479   1480   1492     1  180.0000771  2.0083200  2
   1483   1479   1480   1492     1  0.0000000  1.2552000  3
   1483   1479   1486   1489     1  180.0000771  2.0083200  2
   1483   1479   1486   1489     1  0.0000000  1.2552000  3
   1483   1495   1501   3066     1  0.0000000  0.6508444  3
   1486   1479   1480   1492     1  180.0000771  2.0083200  2
   1486   1479   1480   1492     1  0.0000000  1.2552000  3
   1486   1479   1483   1495     1  180.0000771  2.0083200  2
   1486   1479   1483   1495     1  0.0000000  1.2552000  3
   1486   1489   1498   1507     1  0.0000000  0.6508444  3
   1492   1504   3097   3067     1  180.0000771  0.4184000  2
   1492   1504   3097   3067     1  0.0000000  1.6024720  3
   1495   1501   3066   3036     1  180.0000771  0.4184000  2
   1495   1501   3066   3036     1  0.0000000  1.6024720  3
   1501   3066   3036   3039     1  180.0000771  0.4184000  2
   1501   3066   3036   3039     1  0.0000000  1.6024720  3
   1504   3097   3067   3070     1  180.0000771  0.4184000  2
   1504   3097   3067   3070     1  0.0000000  1.6024720  3
   1508   1509   1521   1533     1  0.0000000  0.6508444  3
   1508   1512   1524   1530     1  0.0000000  0.6508444  3
   1508   1515   1518   1527     1  0.0000000  0.6508444  3
   1509   1508   1512   1524     1  180.0000771  2.0083200  2
   1509   1508   1512   1524     1  0.0000000  1.2552000  3
   1509   1508   1515   1518     1  180.0000771  2.0083200  2
   1509   1508   1515   1518     1  0.0000000  1.2552000  3
   1509   1521   1533   3159     1  0.0000000  0.6508444  3
   1512   1508   1509   1521     1  180.0000771  2.0083200  2
   1512   1508   1509   1521     1  0.0000000  1.2552000  3
   1512   1508   1515   1518     1  180.0000771  2.0083200  2
   1512   1508   1515   1518     1  0.0000000  1.2552000  3
   1512   1524   1530   3128     1  0.0000000  0.6508444  3
   1515   1508   1509   1521     1  180.0000771  2.0083200  2
   1515   1508   1509   1521     1  0.0000000  1.2552000  3
   1515   1508   1512   1524     1  180.0000771  2.0083200  2
   1515   1508   1512   1524     1  0.0000000  1.2552000  3
   1515   1518   1527   1536     1  0.0000000  0.6508444  3
   1521   1533   3159   3129     1  180.0000771  0.4184000  2
   1521   1533   3159   3129     1  0.0000000  1.6024720  3
   1524   1530   3128   3098     1  180.0000771  0.4184000  2
   1524   1530   3128   3098     1  0.0000000  1.6024720  3
   1530   3128   3098   3101     1  180.0000771  0.4184000  2
   1530   3128   3098   3101     1  0.0000000  1.6024720  3
   1533   3159   3129   3132     1  180.0000771  0.4184000  2
   1533   3159   3129   3132     1  0.0000000  1.6024720  3
   1537   1538   1550   1562     1  0.0000000  0.6508444  3
   1537   1541   1553   1559     1  0.0000000  0.6508444  3
   1537   1544   1547   1556     1  0.0000000  0.6508444  3
   1538   1537   1541   1553     1  180.0000771  2.0083200  2
   1538   1537   1541   1553     1  0.0000000  1.2552000  3
   1538   1537   1544   1547     1  180.0000771  2.0083200  2
   1538   1537   1544   1547     1  0.0000000  1.2552000  3
   1538   1550   1562   3221     1  0.0000000  0.6508444  3
   1541   1537   1538   1550     1  180.0000771  2.0083200  2
   1541   1537   1538   1550     1  0.0000000  1.2552000  3
   1541   1537   1544   1547     1  180.0000771  2.0083200  2
   1541   1537   1544   1547     1  0.0000000  1.2552000  3
   1541   1553   1559   3190     1  0.0000000  0.6508444  3
   1544   1537   1538   1550     1  180.0000771  2.0083200  2
   1544   1537   1538   1550     1  0.0000000  1.2552000  3
   1544   1537   1541   1553     1  180.0000771  2.0083200  2
   1544   1537   1541   1553     1  0.0000000  1.2552000  3
   1544   1547   1556   1565     1  0.0000000  0.6508444  3
   1550   1562   3221   3191     1  180.0000771  0.4184000  2
   1550   1562   3221   3191     1  0.0000000  1.6024720  3
   1553   1559   3190   3160     1  180.0000771  0.4184000  2
   1553   1559   3190   3160     1  0.0000000  1.6024720  3
   1559   3190   3160   3163     1  180.0000771  0.4184000  2
   1559   3190   3160   3163     1  0.0000000  1.6024720  3
   1562   3221   3191   3194     1  180.0000771  0.4184000  2
   1562   3221   3191   3194     1  0.0000000  1.6024720  3
   1566   1567   1579   1591     1  0.0000000  0.6508444  3
   1566   1570   1582   1588     1  0.0000000  0.6508444  3
   1566   1573   1576   1585     1  0.0000000  0.6508444  3
   1567   1566   1570   1582     1  180.0000771  2.0083200  2
   1567   1566   1570   1582     1  0.0000000  1.2552000  3
   1567   1566   1573   1576     1  180.0000771  2.0083200  2
   1567   1566   1573   1576     1  0.0000000  1.2552000  3
   1567   1579   1591   3283     1  0.0000000  0.6508444  3
   1570   1566   1567   1579     1  180.0000771  2.0083200  2
   1570   1566   1567   1579     1  0.0000000  1.2552000  3
   1570   1566   1573   1576     1  180.0000771  2.0083200  2
   1570   1566   1573   1576     1  0.0000000  1.2552000  3
   1570   1582   1588   3252     1  0.0000000  0.6508444  3
   1573   1566   1567   1579     1  180.0000771  2.0083200  2
   1573   1566   1567   1579     1  0.0000000  1.2552000  3
   1573   1566   1570   1582     1  180.0000771  2.0083200  2
   1573   1566   1570   1582     1  0.0000000  1.2552000  3
   1573   1576   1585   1594     1  0.0000000  0.6508444  3
   1579   1591   3283   3253     1  180.0000771  0.4184000  2
   1579   1591   3283   3253     1  0.0000000  1.6024720  3
   1582   1588   3252   3222     1  180.0000771  0.4184000  2
   1582   1588   3252   3222     1  0.0000000  1.6024720  3
   1588   3252   3222   3225     1  180.0000771  0.4184000  2
   1588   3252   3222   3225     1  0.0000000  1.6024720  3
   1591   3283   3253   3256     1  180.0000771  0.4184000  2
   1591   3283   3253   3256     1  0.0000000  1.6024720  3
   1595   1596   1608   1620     1  0.0000000  0.6508444  3
   1595   1599   1611   1617     1  0.0000000  0.6508444  3
   1595   1602   1605   1614     1  0.0000000  0.6508444  3
   1596   1595   1599   1611     1  180.0000771  2.0083200  2
   1596   1595   1599   1611     1  0.0000000  1.2552000  3
   1596   1595   1602   1605     1  180.0000771  2.0083200  2
   1596   1595   1602   1605     1  0.0000000  1.2552000  3
   1596   1608   1620   3345     1  0.0000000  0.6508444  3
   1599   1595   1596   1608     1  180.0000771  2.0083200  2
   1599   1595   1596   1608     1  0.0000000  1.2552000  3
   1599   1595   1602   1605     1  180.0000771  2.0083200  2
   1599   1595   1602   1605     1  0.0000000  1.2552000  3
   1599   1611   1617   3314     1  0.0000000  0.6508444  3
   1602   1595   1596   1608     1  180.0000771  2.0083200  2
   1602   1595   1596   1608     1  0.0000000  1.2552000  3
   1602   1595   1599   1611     1  180.0000771  2.0083200  2
   1602   1595   1599   1611     1  0.0000000  1.2552000  3
   1602   1605   1614   1623     1  0.0000000  0.6508444  3
   1608   1620   3345   3315     1  180.0000771  0.4184000  2
   1608   1620   3345   3315     1  0.0000000  1.6024720  3
   1611   1617   3314   3284     1  180.0000771  0.4184000  2
   1611   1617   3314   3284     1  0.0000000  1.6024720  3
   1617   3314   3284   3287     1  180.0000771  0.4184000  2
   1617   3314   3284   3287     1  0.0000000  1.6024720  3
   1620   3345   3315   3318     1  180.0000771  0.4184000  2
   1620   3345   3315   3318     1  0.0000000  1.6024720  3
   1624   1625   1637   1649     1  0.0000000  0.6508444  3
   1624   1628   1640   1646     1  0.0000000  0.6508444  3
   1624   1631   1634   1643     1  0.0000000  0.6508444  3
   1625   1624   1628   1640     1  180.0000771  2.0083200  2
   1625   1624   1628   1640     1  0.0000000  1.2552000  3
   1625   1624   1631   1634     1  180.0000771  2.0083200  2
   1625   1624   1631   1634     1  0.0000000  1.2552000  3
   1625   1637   1649   3407     1  0.0000000  0.6508444  3
   1628   1624   1625   1637     1  180.0000771  2.0083200  2
   1628   1624   1625   1637     1  0.0000000  1.2552000  3
   1628   1624   1631   1634     1  180.0000771  2.0083200  2
   1628   1624   1631   1634     1  0.0000000  1.2552000  3
   1628   1640   1646   3376     1  0.0000000  0.6508444  3
   1631   1624   1625   1637     1  180.0000771  2.0083200  2
   1631   1624   1625   1637     1  0.0000000  1.2552000  3
   1631   1624   1628   1640     1  180.0000771  2.0083200  2
   1631   1624   1628   1640     1  0.0000000  1.2552000  3
   1631   1634   1643   1652     1  0.0000000  0.6508444  3
   1637   1649   3407   3377     1  180.0000771  0.4184000  2
   1637   1649   3407   3377     1  0.0000000  1.6024720  3
   1640   1646   3376   3346     1  180.0000771  0.4184000  2
   1640   1646   3376   3346     1  0.0000000  1.6024720  3
   1646   3376   3346   3349     1  180.0000771  0.4184000  2
   1646   3376   3346   3349     1  0.0000000  1.6024720  3
   1649   3407   3377   3380     1  180.0000771  0.4184000  2
   1649   3407   3377   3380     1  0.0000000  1.6024720  3
   1653   1654   1666   1678     1  0.0000000  0.6508444  3
   1653   1657   1669   1675     1  0.0000000  0.6508444  3
   1653   1660   1663   1672     1  0.0000000  0.6508444  3
   1654   1653   1657   1669     1  180.0000771  2.0083200  2
   1654   1653   1657   1669     1  0.0000000  1.2552000  3
   1654   1653   1660   1663     1  180.0000771  2.0083200  2
   1654   1653   1660   1663     1  0.0000000  1.2552000  3
   1654   1666   1678   3469     1  0.0000000  0.6508444  3
   1657   1653   1654   1666     1  180.0000771  2.0083200  2
   1657   1653   1654   1666     1  0.0000000  1.2552000  3
   1657   1653   1660   1663     1  180.0000771  2.0083200  2
   1657   1653   1660   1663     1  0.0000000  1.2552000  3
   1657   1669   1675   3438     1  0.0000000  0.6508444  3
   1660   1653   1654   1666     1  180.0000771  2.0083200  2
   1660   1653   1654   1666     1  0.0000000  1.2552000  3
   1660   1653   1657   1669     1  180.0000771  2.0083200  2
   1660   1653   1657   1669     1  0.0000000  1.2552000  3
   1660   1663   1672   1681     1  0.0000000  0.6508444  3
   1666   1678   3469   3439     1  180.0000771  0.4184000  2
   1666   1678   3469   3439     1  0.0000000  1.6024720  3
   1669   1675   3438   3408     1  180.0000771  0.4184000  2
   1669   1675   3438   3408     1  0.0000000  1.6024720  3
   1675   3438   3408   3411     1  180.0000771  0.4184000  2
   1675   3438   3408   3411     1  0.0000000  1.6024720  3
   1678   3469   3439   3442     1  180.0000771  0.4184000  2
   1678   3469   3439   3442     1  0.0000000  1.6024720  3
   1682   1683   1695   1707     1  0.0000000  0.6508444  3
   1682   1686   1698   1704     1  0.0000000  0.6508444  3
   1682   1689   1692   1701     1  0.0000000  0.6508444  3
   1683   1682   1686   1698     1  180.0000771  2.0083200  2
   1683   1682   1686   1698     1  0.0000000  1.2552000  3
   1683   1682   1689   1692     1  180.0000771  2.0083200  2
   1683   1682   1689   1692     1  0.0000000  1.2552000  3
   1683   1695   1707   3531     1  0.0000000  0.6508444  3
   1686   1682   1683   1695     1  180.0000771  2.0083200  2
   1686   1682   1683   1695     1  0.0000000  1.2552000  3
   1686   1682   1689   1692     1  180.0000771  2.0083200  2
   1686   1682   1689   1692     1  0.0000000  1.2552000  3
   1686   1698   1704   3500     1  0.0000000  0.6508444  3
   1689   1682   1683   1695     1  180.0000771  2.0083200  2
   1689   1682   1683   1695     1  0.0000000  1.2552000  3
   1689   1682   1686   1698     1  180.0000771  2.0083200  2
   1689   1682   1686   1698     1  0.0000000  1.2552000  3
   1689   1692   1701   1710     1  0.0000000  0.6508444  3
   1695   1707   3531   3501     1  180.0000771  0.4184000  2
   1695   1707   3531   3501     1  0.0000000  1.6024720  3
   1698   1704   3500   3470     1  180.0000771  0.4184000  2
   1698   1704   3500   3470     1  0.0000000  1.6024720  3
   1704   3500   3470   3473     1  180.0000771  0.4184000  2
   1704   3500   3470   3473     1  0.0000000  1.6024720  3
   1707   3531   3501   3504     1  180.0000771  0.4184000  2
   1707   3531   3501   3504     1  0.0000000  1.6024720  3
   1711   1712   1724   1736     1  0.0000000  0.6508444  3
   1711   1715   1727   1733     1  0.0000000  0.6508444  3
   1711   1718   1721   1730     1  0.0000000  0.6508444  3
   1712   1711   1715   1727     1  180.0000771  2.0083200  2
   1712   1711   1715   1727     1  0.0000000  1.2552000  3
   1712   1711   1718   1721     1  180.0000771  2.0083200  2
   1712   1711   1718   1721     1  0.0000000  1.2552000  3
   1712   1724   1736   3593     1  0.0000000  0.6508444  3
   1715   1711   1712   1724     1  180.0000771  2.0083200  2
   1715   1711   1712   1724     1  0.0000000  1.2552000  3
   1715   1711   1718   1721     1  180.0000771  2.0083200  2
   1715   1711   1718   1721     1  0.0000000  1.2552000  3
   1715   1727   1733   3562     1  0.0000000  0.6508444  3
   1718   1711   1712   1724     1  180.0000771  2.0083200  2
   1718   1711   1712   1724     1  0.0000000  1.2552000  3
   1718   1711   1715   1727     1  180.0000771  2.0083200  2
   1718   1711   1715   1727     1  0.0000000  1.2552000  3
   1718   1721   1730   1739     1  0.0000000  0.6508444  3
   1724   1736   3593   3563     1  180.0000771  0.4184000  2
   1724   1736   3593   3563     1  0.0000000  1.6024720  3
   1727   1733   3562   3532     1  180.0000771  0.4184000  2
   1727   1733   3562   3532     1  0.0000000  1.6024720  3
   1733   3562   3532   3535     1  180.0000771  0.4184000  2
   1733   3562   3532   3535     1  0.0000000  1.6024720  3
   1736   3593   3563   3566     1  180.0000771  0.4184000  2
   1736   3593   3563   3566     1  0.0000000  1.6024720  3
   1740   1741   1753   1765     1  0.0000000  0.6508444  3
   1740   1744   1756   1762     1  0.0000000  0.6508444  3
   1740   1747   1750   1759     1  0.0000000  0.6508444  3
   1741   1740   1744   1756     1  180.0000771  2.0083200  2
   1741   1740   1744   1756     1  0.0000000  1.2552000  3
   1741   1740   1747   1750     1  180.0000771  2.0083200  2
   1741   1740   1747   1750     1  0.0000000  1.2552000  3
   1741   1753   1765   3655     1  0.0000000  0.6508444  3
   1744   1740   1741   1753     1  180.0000771  2.0083200  2
   1744   1740   1741   1753     1  0.0000000  1.2552000  3
   1744   1740   1747   1750     1  180.0000771  2.0083200  2
   1744   1740   1747   1750     1  0.0000000  1.2552000  3
   1744   1756   1762   3624     1  0.0000000  0.6508444  3
   1747   1740   1741   1753     1  180.0000771  2.0083200  2
   1747   1740   1741   1753     1  0.0000000  1.2552000  3
   1747   1740   1744   1756     1  180.0000771  2.0083200  2
   1747   1740   1744   1756     1  0.0000000  1.2552000  3
   1747   1750   1759   1768     1  0.0000000  0.6508444  3
   1753   1765   3655   3625     1  180.0000771  0.4184000  2
   1753   1765   3655   3625     1  0.0000000  1.6024720  3
   1756   1762   3624   3594     1  180.0000771  0.4184000  2
   1756   1762   3624   3594     1  0.0000000  1.6024720  3
   1762   3624   3594   3597     1  180.0000771  0.4184000  2
   1762   3624   3594   3597     1  0.0000000  1.6024720  3
   1765   3655   3625   3628     1  180.0000771  0.4184000  2
   1765   3655   3625   3628     1  0.0000000  1.6024720  3
   1769   1770   1782   1794     1  0.0000000  0.6508444  3
   1769   1773   1785   1791     1  0.0000000  0.6508444  3
   1769   1776   1779   1788     1  0.0000000  0.6508444  3
   1770   1769   1773   1785     1  180.0000771  2.0083200  2
   1770   1769   1773   1785     1  0.0000000  1.2552000  3
   1770   1769   1776   1779     1  180.0000771  2.0083200  2
   1770   1769   1776   1779     1  0.0000000  1.2552000  3
   1770   1782   1794   3717     1  0.0000000  0.6508444  3
   1773   1769   1770   1782     1  180.0000771  2.0083200  2
   1773   1769   1770   1782     1  0.0000000  1.2552000  3
   1773   1769   1776   1779     1  180.0000771  2.0083200  2
   1773   1769   1776   1779     1  0.0000000  1.2552000  3
   1773   1785   1791   3686     1  0.0000000  0.6508444  3
   1776   1769   1770   1782     1  180.0000771  2.0083200  2
   1776   1769   1770   1782     1  0.0000000  1.2552000  3
   1776   1769   1773   1785     1  180.0000771  2.0083200  2
   1776   1769   1773   1785     1  0.0000000  1.2552000  3
   1776   1779   1788   1797     1  0.0000000  0.6508444  3
   1782   1794   3717   3687     1  180.0000771  0.4184000  2
   1782   1794   3717   3687     1  0.0000000  1.6024720  3
   1785   1791   3686   3656     1  180.0000771  0.4184000  2
   1785   1791   3686   3656     1  0.0000000  1.6024720  3
   1791   3686   3656   3659     1  180.0000771  0.4184000  2
   1791   3686   3656   3659     1  0.0000000  1.6024720  3
   1794   3717   3687   3690     1  180.0000771  0.4184000  2
   1794   3717   3687   3690     1  0.0000000  1.6024720  3
   1798   1799   1811   1823     1  0.0000000  0.6508444  3
   1798   1802   1814   1820     1  0.0000000  0.6508444  3
   1798   1805   1808   1817     1  0.0000000  0.6508444  3
   1799   1798   1802   1814     1  180.0000771  2.0083200  2
   1799   1798   1802   1814     1  0.0000000  1.2552000  3
   1799   1798   1805   1808     1  180.0000771  2.0083200  2
   1799   1798   1805   1808     1  0.0000000  1.2552000  3
   1799   1811   1823   3779     1  0.0000000  0.6508444  3
   1802   1798   1799   1811     1  180.0000771  2.0083200  2
   1802   1798   1799   1811     1  0.0000000  1.2552000  3
   1802   1798   1805   1808     1  180.0000771  2.0083200  2
   1802   1798   1805   1808     1  0.0000000  1.2552000  3
   1802   1814   1820   3748     1  0.0000000  0.6508444  3
   1805   1798   1799   1811     1  180.0000771  2.0083200  2
   1805   1798   1799   1811     1  0.0000000  1.2552000  3
   1805   1798   1802   1814     1  180.0000771  2.0083200  2
   1805   1798   1802   1814     1  0.0000000  1.2552000  3
   1805   1808   1817   1826     1  0.0000000  0.6508444  3
   1811   1823   3779   3749     1  180.0000771  0.4184000  2
   1811   1823   3779   3749     1  0.0000000  1.6024720  3
   1814   1820   3748   3718     1  180.0000771  0.4184000  2
   1814   1820   3748   3718     1  0.0000000  1.6024720  3
   1820   3748   3718   3721     1  180.0000771  0.4184000  2
   1820   3748   3718   3721     1  0.0000000  1.6024720  3
   1823   3779   3749   3752     1  180.0000771  0.4184000  2
   1823   3779   3749   3752     1  0.0000000  1.6024720  3
   1827   1828   1840   1852     1  0.0000000  0.6508444  3
   1827   1831   1843   1849     1  0.0000000  0.6508444  3
   1827   1834   1837   1846     1  0.0000000  0.6508444  3
   1828   1827   1831   1843     1  180.0000771  2.0083200  2
   1828   1827   1831   1843     1  0.0000000  1.2552000  3
   1828   1827   1834   1837     1  180.0000771  2.0083200  2
   1828   1827   1834   1837     1  0.0000000  1.2552000  3
   1828   1840   1852   3841     1  0.0000000  0.6508444  3
   1831   1827   1828   1840     1  180.0000771  2.0083200  2
   1831   1827   1828   1840     1  0.0000000  1.2552000  3
   1831   1827   1834   1837     1  180.0000771  2.0083200  2
   1831   1827   1834   1837     1  0.0000000  1.2552000  3
   1831   1843   1849   3810     1  0.0000000  0.6508444  3
   1834   1827   1828   1840     1  180.0000771  2.0083200  2
   1834   1827   1828   1840     1  0.0000000  1.2552000  3
   1834   1827   1831   1843     1  180.0000771  2.0083200  2
   1834   1827   1831   1843     1  0.0000000  1.2552000  3
   1834   1837   1846   1855     1  0.0000000  0.6508444  3
   1840   1852   3841   3811     1  180.0000771  0.4184000  2
   1840   1852   3841   3811     1  0.0000000  1.6024720  3
   1843   1849   3810   3780     1  180.0000771  0.4184000  2
   1843   1849   3810   3780     1  0.0000000  1.6024720  3
   1849   3810   3780   3783     1  180.0000771  0.4184000  2
   1849   3810   3780   3783     1  0.0000000  1.6024720  3
   1852   3841   3811   3814     1  180.0000771  0.4184000  2
   1852   3841   3811   3814     1  0.0000000  1.6024720  3
   1856   1857   1869   1881     1  0.0000000  0.6508444  3
   1856   1860   1872   1878     1  0.0000000  0.6508444  3
   1856   1863   1866   1875     1  0.0000000  0.6508444  3
   1857   1856   1860   1872     1  180.0000771  2.0083200  2
   1857   1856   1860   1872     1  0.0000000  1.2552000  3
   1857   1856   1863   1866     1  180.0000771  2.0083200  2
   1857   1856   1863   1866     1  0.0000000  1.2552000  3
   1857   1869   1881   3903     1  0.0000000  0.6508444  3
   1860   1856   1857   1869     1  180.0000771  2.0083200  2
   1860   1856   1857   1869     1  0.0000000  1.2552000  3
   1860   1856   1863   1866     1  180.0000771  2.0083200  2
   1860   1856   1863   1866     1  0.0000000  1.2552000  3
   1860   1872   1878   3872     1  0.0000000  0.6508444  3
   1863   1856   1857   1869     1  180.0000771  2.0083200  2
   1863   1856   1857   1869     1  0.0000000  1.2552000  3
   1863   1856   1860   1872     1  180.0000771  2.0083200  2
   1863   1856   1860   1872     1  0.0000000  1.2552000  3
   1863   1866   1875   1884     1  0.0000000  0.6508444  3
   1869   1881   3903   3873     1  180.0000771  0.4184000  2
   1869   1881   3903   3873     1  0.0000000  1.6024720  3
   1872   1878   3872   3842     1  180.0000771  0.4184000  2
   1872   1878   3872   3842     1  0.0000000  1.6024720  3
   1878   3872   3842   3845     1  180.0000771  0.4184000  2
   1878   3872   3842   3845     1  0.0000000  1.6024720  3
   1881   3903   3873   3876     1  180.0000771  0.4184000  2
   1881   3903   3873   3876     1  0.0000000  1.6024720  3
   1885   1886   1898   1910     1  0.0000000  0.6508444  3
   1885   1889   1901   1907     1  0.0000000  0.6508444  3
   1885   1892   1895   1904     1  0.0000000  0.6508444  3
   1886   1885   1889   1901     1  180.0000771  2.0083200  2
   1886   1885   1889   1901     1  0.0000000  1.2552000  3
   1886   1885   1892   1895     1  180.0000771  2.0083200  2
   1886   1885   1892   1895     1  0.0000000  1.2552000  3
   1886   1898   1910   3965     1  0.0000000  0.6508444  3
   1889   1885   1886   1898     1  180.0000771  2.0083200  2
   1889   1885   1886   1898     1  0.0000000  1.2552000  3
   1889   1885   1892   1895     1  180.0000771  2.0083200  2
   1889   1885   1892   1895     1  0.0000000  1.2552000  3
   1889   1901   1907   3934     1  0.0000000  0.6508444  3
   1892   1885   1886   1898     1  180.0000771  2.0083200  2
   1892   1885   1886   1898     1  0.0000000  1.2552000  3
   1892   1885   1889   1901     1  180.0000771  2.0083200  2
   1892   1885   1889   1901     1  0.0000000  1.2552000  3
   1892   1895   1904   1913     1  0.0000000  0.6508444  3
   1898   1910   3965   3935     1  180.0000771  0.4184000  2
   1898   1910   3965   3935     1  0.0000000  1.6024720  3
   1901   1907   3934   3904     1  180.0000771  0.4184000  2
   1901   1907   3934   3904     1  0.0000000  1.6024720  3
   1907   3934   3904   3907     1  180.0000771  0.4184000  2
   1907   3934   3904   3907     1  0.0000000  1.6024720  3
   1910   3965   3935   3938     1  180.0000771  0.4184000  2
   1910   3965   3935   3938     1  0.0000000  1.6024720  3
   1914   1915   1927   1939     1  0.0000000  0.6508444  3
   1914   1918   1930   1936     1  0.0000000  0.6508444  3
   1914   1921   1924   1933     1  0.0000000  0.6508444  3
   1915   1914   1918   1930     1  180.0000771  2.0083200  2
   1915   1914   1918   1930     1  0.0000000  1.2552000  3
   1915   1914   1921   1924     1  180.0000771  2.0083200  2
   1915   1914   1921   1924     1  0.0000000  1.2552000  3
   1915   1927   1939   4027     1  0.0000000  0.6508444  3
   1918   1914   1915   1927     1  180.0000771  2.0083200  2
   1918   1914   1915   1927     1  0.0000000  1.2552000  3
   1918   1914   1921   1924     1  180.0000771  2.0083200  2
   1918   1914   1921   1924     1  0.0000000  1.2552000  3
   1918   1930   1936   3996     1  0.0000000  0.6508444  3
   1921   1914   1915   1927     1  180.0000771  2.0083200  2
   1921   1914   1915   1927     1  0.0000000  1.2552000  3
   1921   1914   1918   1930     1  180.0000771  2.0083200  2
   1921   1914   1918   1930     1  0.0000000  1.2552000  3
   1921   1924   1933   1942     1  0.0000000  0.6508444  3
   1927   1939   4027   3997     1  180.0000771  0.4184000  2
   1927   1939   4027   3997     1  0.0000000  1.6024720  3
   1930   1936   3996   3966     1  180.0000771  0.4184000  2
   1930   1936   3996   3966     1  0.0000000  1.6024720  3
   1936   3996   3966   3969     1  180.0000771  0.4184000  2
   1936   3996   3966   3969     1  0.0000000  1.6024720  3
   1939   4027   3997   4000     1  180.0000771  0.4184000  2
   1939   4027   3997   4000     1  0.0000000  1.6024720  3
   1943   1944   1956   1968     1  0.0000000  0.6508444  3
   1943   1947   1959   1965     1  0.0000000  0.6508444  3
   1943   1950   1953   1962     1  0.0000000  0.6508444  3
   1944   1943   1947   1959     1  180.0000771  2.0083200  2
   1944   1943   1947   1959     1  0.0000000  1.2552000  3
   1944   1943   1950   1953     1  180.0000771  2.0083200  2
   1944   1943   1950   1953     1  0.0000000  1.2552000  3
   1944   1956   1968   4089     1  0.0000000  0.6508444  3
   1947   1943   1944   1956     1  180.0000771  2.0083200  2
   1947   1943   1944   1956     1  0.0000000  1.2552000  3
   1947   1943   1950   1953     1  180.0000771  2.0083200  2
   1947   1943   1950   1953     1  0.0000000  1.2552000  3
   1947   1959   1965   4058     1  0.0000000  0.6508444  3
   1950   1943   1944   1956     1  180.0000771  2.0083200  2
   1950   1943   1944   1956     1  0.0000000  1.2552000  3
   1950   1943   1947   1959     1  180.0000771  2.0083200  2
   1950   1943   1947   1959     1  0.0000000  1.2552000  3
   1950   1953   1962   1971     1  0.0000000  0.6508444  3
   1956   1968   4089   4059     1  180.0000771  0.4184000  2
   1956   1968   4089   4059     1  0.0000000  1.6024720  3
   1959   1965   4058   4028     1  180.0000771  0.4184000  2
   1959   1965   4058   4028     1  0.0000000  1.6024720  3
   1965   4058   4028   4031     1  180.0000771  0.4184000  2
   1965   4058   4028   4031     1  0.0000000  1.6024720  3
   1968   4089   4059   4062     1  180.0000771  0.4184000  2
   1968   4089   4059   4062     1  0.0000000  1.6024720  3
   1972   1973   1985   1997     1  0.0000000  0.6508444  3
   1972   1976   1988   1994     1  0.0000000  0.6508444  3
   1972   1979   1982   1991     1  0.0000000  0.6508444  3
   1973   1972   1976   1988     1  180.0000771  2.0083200  2
   1973   1972   1976   1988     1  0.0000000  1.2552000  3
   1973   1972   1979   1982     1  180.0000771  2.0083200  2
   1973   1972   1979   1982     1  0.0000000  1.2552000  3
   1973   1985   1997   4151     1  0.0000000  0.6508444  3
   1976   1972   1973   1985     1  180.0000771  2.0083200  2
   1976   1972   1973   1985     1  0.0000000  1.2552000  3
   1976   1972   1979   1982     1  180.0000771  2.0083200  2
   1976   1972   1979   1982     1  0.0000000  1.2552000  3
   1976   1988   1994   4120     1  0.0000000  0.6508444  3
   1979   1972   1973   1985     1  180.0000771  2.0083200  2
   1979   1972   1973   1985     1  0.0000000  1.2552000  3
   1979   1972   1976   1988     1  180.0000771  2.0083200  2
   1979   1972   1976   1988     1  0.0000000  1.2552000  3
   1979   1982   1991   2000     1  0.0000000  0.6508444  3
   1985   1997   4151   4121     1  180.0000771  0.4184000  2
   1985   1997   4151   4121     1  0.0000000  1.6024720  3
   1988   1994   4120   4090     1  180.0000771  0.4184000  2
   1988   1994   4120   4090     1  0.0000000  1.6024720  3
   1994   4120   4090   4093     1  180.0000771  0.4184000  2
   1994   4120   4090   4093     1  0.0000000  1.6024720  3
   1997   4151   4121   4124     1  180.0000771  0.4184000  2
   1997   4151   4121   4124     1  0.0000000  1.6024720  3
   2001   2002   2014   2026     1  0.0000000  0.6508444  3
   2001   2005   2017   2023     1  0.0000000  0.6508444  3
   2001   2008   2011   2020     1  0.0000000  0.6508444  3
   2002   2001   2005   2017     1  180.0000771  2.0083200  2
   2002   2001   2005   2017     1  0.0000000  1.2552000  3
   2002   2001   2008   2011     1  180.0000771  2.0083200  2
   2002   2001   2008   2011     1  0.0000000  1.2552000  3
   2002   2014   2026   4213     1  0.0000000  0.6508444  3
   2005   2001   2002   2014     1  180.0000771  2.0083200  2
   2005   2001   2002   2014     1  0.0000000  1.2552000  3
   2005   2001   2008   2011     1  180.0000771  2.0083200  2
   2005   2001   2008   2011     1  0.0000000  1.2552000  3
   2005   2017   2023   4182     1  0.0000000  0.6508444  3
   2008   2001   2002   2014     1  180.0000771  2.0083200  2
   2008   2001   2002   2014     1  0.0000000  1.2552000  3
   2008   2001   2005   2017     1  180.0000771  2.0083200  2
   2008   2001   2005   2017     1  0.0000000  1.2552000  3
   2008   2011   2020   2029     1  0.0000000  0.6508444  3
   2014   2026   4213   4183     1  180.0000771  0.4184000  2
   2014   2026   4213   4183     1  0.0000000  1.6024720  3
   2017   2023   4182   4152     1  180.0000771  0.4184000  2
   2017   2023   4182   4152     1  0.0000000  1.6024720  3
   2023   4182   4152   4155     1  180.0000771  0.4184000  2
   2023   4182   4152   4155     1  0.0000000  1.6024720  3
   2026   4213   4183   4186     1  180.0000771  0.4184000  2
   2026   4213   4183   4186     1  0.0000000  1.6024720  3
   2030   2031   2043   2055     1  0.0000000  0.6508444  3
   2030   2034   2046   2052     1  0.0000000  0.6508444  3
   2030   2037   2040   2049     1  0.0000000  0.6508444  3
   2031   2030   2034   2046     1  180.0000771  2.0083200  2
   2031   2030   2034   2046     1  0.0000000  1.2552000  3
   2031   2030   2037   2040     1  180.0000771  2.0083200  2
   2031   2030   2037   2040     1  0.0000000  1.2552000  3
   2031   2043   2055   4275     1  0.0000000  0.6508444  3
   2034   2030   2031   2043     1  180.0000771  2.0083200  2
   2034   2030   2031   2043     1  0.0000000  1.2552000  3
   2034   2030   2037   2040     1  180.0000771  2.0083200  2
   2034   2030   2037   2040     1  0.0000000  1.2552000  3
   2034   2046   2052   4244     1  0.0000000  0.6508444  3
   2037   2030   2031   2043     1  180.0000771  2.0083200  2
   2037   2030   2031   2043     1  0.0000000  1.2552000  3
   2037   2030   2034   2046     1  180.0000771  2.0083200  2
   2037   2030   2034   2046     1  0.0000000  1.2552000  3
   2037   2040   2049   2058     1  0.0000000  0.6508444  3
   2043   2055   4275   4245     1  180.0000771  0.4184000  2
   2043   2055   4275   4245     1  0.0000000  1.6024720  3
   2046   2052   4244   4214     1  180.0000771  0.4184000  2
   2046   2052   4244   4214     1  0.0000000  1.6024720  3
   2052   4244   4214   4217     1  180.0000771  0.4184000  2
   2052   4244   4214   4217     1  0.0000000  1.6024720  3
   2055   4275   4245   4248     1  180.0000771  0.4184000  2
   2055   4275   4245   4248     1  0.0000000  1.6024720  3
   2059   2060   2072   2084     1  0.0000000  0.6508444  3
   2059   2063   2075   2081     1  0.0000000  0.6508444  3
   2059   2066   2069   2078     1  0.0000000  0.6508444  3
   2060   2059   2063   2075     1  180.0000771  2.0083200  2
   2060   2059   2063   2075     1  0.0000000  1.2552000  3
   2060   2059   2066   2069     1  180.0000771  2.0083200  2
   2060   2059   2066   2069     1  0.0000000  1.2552000  3
   2060   2072   2084   4337     1  0.0000000  0.6508444  3
   2063   2059   2060   2072     1  180.0000771  2.0083200  2
   2063   2059   2060   2072     1  0.0000000  1.2552000  3
   2063   2059   2066   2069     1  180.0000771  2.0083200  2
   2063   2059   2066   2069     1  0.0000000  1.2552000  3
   2063   2075   2081   4306     1  0.0000000  0.6508444  3
   2066   2059   2060   2072     1  180.0000771  2.0083200  2
   2066   2059   2060   2072     1  0.0000000  1.2552000  3
   2066   2059   2063   2075     1  180.0000771  2.0083200  2
   2066   2059   2063   2075     1  0.0000000  1.2552000  3
   2066   2069   2078   2087     1  0.0000000  0.6508444  3
   2072   2084   4337   4307     1  180.0000771  0.4184000  2
   2072   2084   4337   4307     1  0.0000000  1.6024720  3
   2075   2081   4306   4276     1  180.0000771  0.4184000  2
   2075   2081   4306   4276     1  0.0000000  1.6024720  3
   2081   4306   4276   4279     1  180.0000771  0.4184000  2
   2081   4306   4276   4279     1  0.0000000  1.6024720  3
   2084   4337   4307   4310     1  180.0000771  0.4184000  2
   2084   4337   4307   4310     1  0.0000000  1.6024720  3
   2088   2089   2101   2113     1  0.0000000  0.6508444  3
   2088   2092   2104   2110     1  0.0000000  0.6508444  3
   2088   2095   2098   2107     1  0.0000000  0.6508444  3
   2089   2088   2092   2104     1  180.0000771  2.0083200  2
   2089   2088   2092   2104     1  0.0000000  1.2552000  3
   2089   2088   2095   2098     1  180.0000771  2.0083200  2
   2089   2088   2095   2098     1  0.0000000  1.2552000  3
   2089   2101   2113   4399     1  0.0000000  0.6508444  3
   2092   2088   2089   2101     1  180.0000771  2.0083200  2
   2092   2088   2089   2101     1  0.0000000  1.2552000  3
   2092   2088   2095   2098     1  180.0000771  2.0083200  2
   2092   2088   2095   2098     1  0.0000000  1.2552000  3
   2092   2104   2110   4368     1  0.0000000  0.6508444  3
   2095   2088   2089   2101     1  180.0000771  2.0083200  2
   2095   2088   2089   2101     1  0.0000000  1.2552000  3
   2095   2088   2092   2104     1  180.0000771  2.0083200  2
   2095   2088   2092   2104     1  0.0000000  1.2552000  3
   2095   2098   2107   2116     1  0.0000000  0.6508444  3
   2101   2113   4399   4369     1  180.0000771  0.4184000  2
   2101   2113   4399   4369     1  0.0000000  1.6024720  3
   2104   2110   4368   4338     1  180.0000771  0.4184000  2
   2104   2110   4368   4338     1  0.0000000  1.6024720  3
   2110   4368   4338   4341     1  180.0000771  0.4184000  2
   2110   4368   4338   4341     1  0.0000000  1.6024720  3
   2113   4399   4369   4372     1  180.0000771  0.4184000  2
   2113   4399   4369   4372     1  0.0000000  1.6024720  3
   2117   2118   2130   2142     1  0.0000000  0.6508444  3
   2117   2121   2133   2139     1  0.0000000  0.6508444  3
   2117   2124   2127   2136     1  0.0000000  0.6508444  3
   2118   2117   2121   2133     1  180.0000771  2.0083200  2
   2118   2117   2121   2133     1  0.0000000  1.2552000  3
   2118   2117   2124   2127     1  180.0000771  2.0083200  2
   2118   2117   2124   2127     1  0.0000000  1.2552000  3
   2118   2130   2142   4461     1  0.0000000  0.6508444  3
   2121   2117   2118   2130     1  180.0000771  2.0083200  2
   2121   2117   2118   2130     1  0.0000000  1.2552000  3
   2121   2117   2124   2127     1  180.0000771  2.0083200  2
   2121   2117   2124   2127     1  0.0000000  1.2552000  3
   2121   2133   2139   4430     1  0.0000000  0.6508444  3
   2124   2117   2118   2130     1  180.0000771  2.0083200  2
   2124   2117   2118   2130     1  0.0000000  1.2552000  3
   2124   2117   2121   2133     1  180.0000771  2.0083200  2
   2124   2117   2121   2133     1  0.0000000  1.2552000  3
   2124   2127   2136   2145     1  0.0000000  0.6508444  3
   2130   2142   4461   4431     1  180.0000771  0.4184000  2
   2130   2142   4461   4431     1  0.0000000  1.6024720  3
   2133   2139   4430   4400     1  180.0000771  0.4184000  2
   2133   2139   4430   4400     1  0.0000000  1.6024720  3
   2139   4430   4400   4403     1  180.0000771  0.4184000  2
   2139   4430   4400   4403     1  0.0000000  1.6024720  3
   2142   4461   4431   4434     1  180.0000771  0.4184000  2
   2142   4461   4431   4434     1  0.0000000  1.6024720  3
   2146   2147   2159   2171     1  0.0000000  0.6508444  3
   2146   2150   2162   2168     1  0.0000000  0.6508444  3
   2146   2153   2156   2165     1  0.0000000  0.6508444  3
   2147   2146   2150   2162     1  180.0000771  2.0083200  2
   2147   2146   2150   2162     1  0.0000000  1.2552000  3
   2147   2146   2153   2156     1  180.0000771  2.0083200  2
   2147   2146   2153   2156     1  0.0000000  1.2552000  3
   2147   2159   2171   4523     1  0.0000000  0.6508444  3
   2150   2146   2147   2159     1  180.0000771  2.0083200  2
   2150   2146   2147   2159     1  0.0000000  1.2552000  3
   2150   2146   2153   2156     1  180.0000771  2.0083200  2
   2150   2146   2153   2156     1  0.0000000  1.2552000  3
   2150   2162   2168   4492     1  0.0000000  0.6508444  3
   2153   2146   2147   2159     1  180.0000771  2.0083200  2
   2153   2146   2147   2159     1  0.0000000  1.2552000  3
   2153   2146   2150   2162     1  180.0000771  2.0083200  2
   2153   2146   2150   2162     1  0.0000000  1.2552000  3
   2153   2156   2165   2174     1  0.0000000  0.6508444  3
   2159   2171   4523   4493     1  180.0000771  0.4184000  2
   2159   2171   4523   4493     1  0.0000000  1.6024720  3
   2162   2168   4492   4462     1  180.0000771  0.4184000  2
   2162   2168   4492   4462     1  0.0000000  1.6024720  3
   2168   4492   4462   4465     1  180.0000771  0.4184000  2
   2168   4492   4462   4465     1  0.0000000  1.6024720  3
   2171   4523   4493   4496     1  180.0000771  0.4184000  2
   2171   4523   4493   4496     1  0.0000000  1.6024720  3
   2175   2176   2188   2200     1  0.0000000  0.6508444  3
   2175   2179   2191   2197     1  0.0000000  0.6508444  3
   2175   2182   2185   2194     1  0.0000000  0.6508444  3
   2176   2175   2179   2191     1  180.0000771  2.0083200  2
   2176   2175   2179   2191     1  0.0000000  1.2552000  3
   2176   2175   2182   2185     1  180.0000771  2.0083200  2
   2176   2175   2182   2185     1  0.0000000  1.2552000  3
   2176   2188   2200   4585     1  0.0000000  0.6508444  3
   2179   2175   2176   2188     1  180.0000771  2.0083200  2
   2179   2175   2176   2188     1  0.0000000  1.2552000  3
   2179   2175   2182   2185     1  180.0000771  2.0083200  2
   2179   2175   2182   2185     1  0.0000000  1.2552000  3
   2179   2191   2197   4554     1  0.0000000  0.6508444  3
   2182   2175   2176   2188     1  180.0000771  2.0083200  2
   2182   2175   2176   2188     1  0.0000000  1.2552000  3
   2182   2175   2179   2191     1  180.0000771  2.0083200  2
   2182   2175   2179   2191     1  0.0000000  1.2552000  3
   2182   2185   2194   2203     1  0.0000000  0.6508444  3
   2188   2200   4585   4555     1  180.0000771  0.4184000  2
   2188   2200   4585   4555     1  0.0000000  1.6024720  3
   2191   2197   4554   4524     1  180.0000771  0.4184000  2
   2191   2197   4554   4524     1  0.0000000  1.6024720  3
   2197   4554   4524   4527     1  180.0000771  0.4184000  2
   2197   4554   4524   4527     1  0.0000000  1.6024720  3
   2200   4585   4555   4558     1  180.0000771  0.4184000  2
   2200   4585   4555   4558     1  0.0000000  1.6024720  3
   2204   2205   2217   2229     1  0.0000000  0.6508444  3
   2204   2208   2220   2226     1  0.0000000  0.6508444  3
   2204   2211   2214   2223     1  0.0000000  0.6508444  3
   2205   2204   2208   2220     1  180.0000771  2.0083200  2
   2205   2204   2208   2220     1  0.0000000  1.2552000  3
   2205   2204   2211   2214     1  180.0000771  2.0083200  2
   2205   2204   2211   2214     1  0.0000000  1.2552000  3
   2205   2217   2229   4647     1  0.0000000  0.6508444  3
   2208   2204   2205   2217     1  180.0000771  2.0083200  2
   2208   2204   2205   2217     1  0.0000000  1.2552000  3
   2208   2204   2211   2214     1  180.0000771  2.0083200  2
   2208   2204   2211   2214     1  0.0000000  1.2552000  3
   2208   2220   2226   4616     1  0.0000000  0.6508444  3
   2211   2204   2205   2217     1  180.0000771  2.0083200  2
   2211   2204   2205   2217     1  0.0000000  1.2552000  3
   2211   2204   2208   2220     1  180.0000771  2.0083200  2
   2211   2204   2208   2220     1  0.0000000  1.2552000  3
   2211   2214   2223   2232     1  0.0000000  0.6508444  3
   2217   2229   4647   4617     1  180.0000771  0.4184000  2
   2217   2229   4647   4617     1  0.0000000  1.6024720  3
   2220   2226   4616   4586     1  180.0000771  0.4184000  2
   2220   2226   4616   4586     1  0.0000000  1.6024720  3
   2226   4616   4586   4589     1  180.0000771  0.4184000  2
   2226   4616   4586   4589     1  0.0000000  1.6024720  3
   2229   4647   4617   4620     1  180.0000771  0.4184000  2
   2229   4647   4617   4620     1  0.0000000  1.6024720  3
   2233   2234   2246   2258     1  0.0000000  0.6508444  3
   2233   2237   2249   2255     1  0.0000000  0.6508444  3
   2233   2240   2243   2252     1  0.0000000  0.6508444  3
   2234   2233   2237   2249     1  180.0000771  2.0083200  2
   2234   2233   2237   2249     1  0.0000000  1.2552000  3
   2234   2233   2240   2243     1  180.0000771  2.0083200  2
   2234   2233   2240   2243     1  0.0000000  1.2552000  3
   2234   2246   2258   4709     1  0.0000000  0.6508444  3
   2237   2233   2234   2246     1  180.0000771  2.0083200  2
   2237   2233   2234   2246     1  0.0000000  1.2552000  3
   2237   2233   2240   2243     1  180.0000771  2.0083200  2
   2237   2233   2240   2243     1  0.0000000  1.2552000  3
   2237   2249   2255   4678     1  0.0000000  0.6508444  3
   2240   2233   2234   2246     1  180.0000771  2.0083200  2
   2240   2233   2234   2246     1  0.0000000  1.2552000  3
   2240   2233   2237   2249     1  180.0000771  2.0083200  2
   2240   2233   2237   2249     1  0.0000000  1.2552000  3
   2240   2243   2252   2261     1  0.0000000  0.6508444  3
   2246   2258   4709   4679     1  180.0000771  0.4184000  2
   2246   2258   4709   4679     1  0.0000000  1.6024720  3
   2249   2255   4678   4648     1  180.0000771  0.4184000  2
   2249   2255   4678   4648     1  0.0000000  1.6024720  3
   2255   4678   4648   4651     1  180.0000771  0.4184000  2
   2255   4678   4648   4651     1  0.0000000  1.6024720  3
   2258   4709   4679   4682     1  180.0000771  0.4184000  2
   2258   4709   4679   4682     1  0.0000000  1.6024720  3
   2262   2263   2275   2287     1  0.0000000  0.6508444  3
   2262   2266   2278   2284     1  0.0000000  0.6508444  3
   2262   2269   2272   2281     1  0.0000000  0.6508444  3
   2263   2262   2266   2278     1  180.0000771  2.0083200  2
   2263   2262   2266   2278     1  0.0000000  1.2552000  3
   2263   2262   2269   2272     1  180.0000771  2.0083200  2
   2263   2262   2269   2272     1  0.0000000  1.2552000  3
   2263   2275   2287   4771     1  0.0000000  0.6508444  3
   2266   2262   2263   2275     1  180.0000771  2.0083200  2
   2266   2262   2263   2275     1  0.0000000  1.2552000  3
   2266   2262   2269   2272     1  180.0000771  2.0083200  2
   2266   2262   2269   2272     1  0.0000000  1.2552000  3
   2266   2278   2284   4740     1  0.0000000  0.6508444  3
   2269   2262   2263   2275     1  180.0000771  2.0083200  2
   2269   2262   2263   2275     1  0.0000000  1.2552000  3
   2269   2262   2266   2278     1  180.0000771  2.0083200  2
   2269   2262   2266   2278     1  0.0000000  1.2552000  3
   2269   2272   2281   2290     1  0.0000000  0.6508444  3
   2275   2287   4771   4741     1  180.0000771  0.4184000  2
   2275   2287   4771   4741     1  0.0000000  1.6024720  3
   2278   2284   4740   4710     1  180.0000771  0.4184000  2
   2278   2284   4740   4710     1  0.0000000  1.6024720  3
   2284   4740   4710   4713     1  180.0000771  0.4184000  2
   2284   4740   4710   4713     1  0.0000000  1.6024720  3
   2287   4771   4741   4744     1  180.0000771  0.4184000  2
   2287   4771   4741   4744     1  0.0000000  1.6024720  3
   2291   2292   2304   2316     1  0.0000000  0.6508444  3
   2291   2295   2307   2313     1  0.0000000  0.6508444  3
   2291   2298   2301   2310     1  0.0000000  0.6508444  3
   2292   2291   2295   2307     1  180.0000771  2.0083200  2
   2292   2291   2295   2307     1  0.0000000  1.2552000  3
   2292   2291   2298   2301     1  180.0000771  2.0083200  2
   2292   2291   2298   2301     1  0.0000000  1.2552000  3
   2292   2304   2316   4833     1  0.0000000  0.6508444  3
   2295   2291   2292   2304     1  180.0000771  2.0083200  2
   2295   2291   2292   2304     1  0.0000000  1.2552000  3
   2295   2291   2298   2301     1  180.0000771  2.0083200  2
   2295   2291   2298   2301     1  0.0000000  1.2552000  3
   2295   2307   2313   4802     1  0.0000000  0.6508444  3
   2298   2291   2292   2304     1  180.0000771  2.0083200  2
   2298   2291   2292   2304     1  0.0000000  1.2552000  3
   2298   2291   2295   2307     1  180.0000771  2.0083200  2
   2298   2291   2295   2307     1  0.0000000  1.2552000  3
   2298   2301   2310   2319     1  0.0000000  0.6508444  3
   2304   2316   4833   4803     1  180.0000771  0.4184000  2
   2304   2316   4833   4803     1  0.0000000  1.6024720  3
   2307   2313   4802   4772     1  180.0000771  0.4184000  2
   2307   2313   4802   4772     1  0.0000000  1.6024720  3
   2313   4802   4772   4775     1  180.0000771  0.4184000  2
   2313   4802   4772   4775     1  0.0000000  1.6024720  3
   2316   4833   4803   4806     1  180.0000771  0.4184000  2
   2316   4833   4803   4806     1  0.0000000  1.6024720  3
   2320   2321   2333   2345     1  0.0000000  0.6508444  3
   2320   2324   2336   2342     1  0.0000000  0.6508444  3
   2320   2327   2330   2339     1  0.0000000  0.6508444  3
   2321   2320   2324   2336     1  180.0000771  2.0083200  2
   2321   2320   2324   2336     1  0.0000000  1.2552000  3
   2321   2320   2327   2330     1  180.0000771  2.0083200  2
   2321   2320   2327   2330     1  0.0000000  1.2552000  3
   2321   2333   2345   4895     1  0.0000000  0.6508444  3
   2324   2320   2321   2333     1  180.0000771  2.0083200  2
   2324   2320   2321   2333     1  0.0000000  1.2552000  3
   2324   2320   2327   2330     1  180.0000771  2.0083200  2
   2324   2320   2327   2330     1  0.0000000  1.2552000  3
   2324   2336   2342   4864     1  0.0000000  0.6508444  3
   2327   2320   2321   2333     1  180.0000771  2.0083200  2
   2327   2320   2321   2333     1  0.0000000  1.2552000  3
   2327   2320   2324   2336     1  180.0000771  2.0083200  2
   2327   2320   2324   2336     1  0.0000000  1.2552000  3
   2327   2330   2339   2348     1  0.0000000  0.6508444  3
   2333   2345   4895   4865     1  180.0000771  0.4184000  2
   2333   2345   4895   4865     1  0.0000000  1.6024720  3
   2336   2342   4864   4834     1  180.0000771  0.4184000  2
   2336   2342   4864   4834     1  0.0000000  1.6024720  3
   2342   4864   4834   4837     1  180.0000771  0.4184000  2
   2342   4864   4834   4837     1  0.0000000  1.6024720  3
   2345   4895   4865   4868     1  180.0000771  0.4184000  2
   2345   4895   4865   4868     1  0.0000000  1.6024720  3
   2349   2350   2362   2374     1  0.0000000  0.6508444  3
   2349   2353   2365   2371     1  0.0000000  0.6508444  3
   2349   2356   2359   2368     1  0.0000000  0.6508444  3
   2350   2349   2353   2365     1  180.0000771  2.0083200  2
   2350   2349   2353   2365     1  0.0000000  1.2552000  3
   2350   2349   2356   2359     1  180.0000771  2.0083200  2
   2350   2349   2356   2359     1  0.0000000  1.2552000  3
   2350   2362   2374   4957     1  0.0000000  0.6508444  3
   2353   2349   2350   2362     1  180.0000771  2.0083200  2
   2353   2349   2350   2362     1  0.0000000  1.2552000  3
   2353   2349   2356   2359     1  180.0000771  2.0083200  2
   2353   2349   2356   2359     1  0.0000000  1.2552000  3
   2353   2365   2371   4926     1  0.0000000  0.6508444  3
   2356   2349   2350   2362     1  180.0000771  2.0083200  2
   2356   2349   2350   2362     1  0.0000000  1.2552000  3
   2356   2349   2353   2365     1  180.0000771  2.0083200  2
   2356   2349   2353   2365     1  0.0000000  1.2552000  3
   2356   2359   2368   2377     1  0.0000000  0.6508444  3
   2362   2374   4957   4927     1  180.0000771  0.4184000  2
   2362   2374   4957   4927     1  0.0000000  1.6024720  3
   2365   2371   4926   4896     1  180.0000771  0.4184000  2
   2365   2371   4926   4896     1  0.0000000  1.6024720  3
   2371   4926   4896   4899     1  180.0000771  0.4184000  2
   2371   4926   4896   4899     1  0.0000000  1.6024720  3
   2374   4957   4927   4930     1  180.0000771  0.4184000  2
   2374   4957   4927   4930     1  0.0000000  1.6024720  3
   2378   2379   2391   2403     1  0.0000000  0.6508444  3
   2378   2382   2394   2400     1  0.0000000  0.6508444  3
   2378   2385   2388   2397     1  0.0000000  0.6508444  3
   2379   2378   2382   2394     1  180.0000771  2.0083200  2
   2379   2378   2382   2394     1  0.0000000  1.2552000  3
   2379   2378   2385   2388     1  180.0000771  2.0083200  2
   2379   2378   2385   2388     1  0.0000000  1.2552000  3
   2379   2391   2403   5019     1  0.0000000  0.6508444  3
   2382   2378   2379   2391     1  180.0000771  2.0083200  2
   2382   2378   2379   2391     1  0.0000000  1.2552000  3
   2382   2378   2385   2388     1  180.0000771  2.0083200  2
   2382   2378   2385   2388     1  0.0000000  1.2552000  3
   2382   2394   2400   4988     1  0.0000000  0.6508444  3
   2385   2378   2379   2391     1  180.0000771  2.0083200  2
   2385   2378   2379   2391     1  0.0000000  1.2552000  3
   2385   2378   2382   2394     1  180.0000771  2.0083200  2
   2385   2378   2382   2394     1  0.0000000  1.2552000  3
   2385   2388   2397   2406     1  0.0000000  0.6508444  3
   2391   2403   5019   4989     1  180.0000771  0.4184000  2
   2391   2403   5019   4989     1  0.0000000  1.6024720  3
   2394   2400   4988   4958     1  180.0000771  0.4184000  2
   2394   2400   4988   4958     1  0.0000000  1.6024720  3
   2400   4988   4958   4961     1  180.0000771  0.4184000  2
   2400   4988   4958   4961     1  0.0000000  1.6024720  3
   2403   5019   4989   4992     1  180.0000771  0.4184000  2
   2403   5019   4989   4992     1  0.0000000  1.6024720  3
   2407   2408   2420   2432     1  0.0000000  0.6508444  3
   2407   2411   2423   2429     1  0.0000000  0.6508444  3
   2407   2414   2417   2426     1  0.0000000  0.6508444  3
   2408   2407   2411   2423     1  180.0000771  2.0083200  2
   2408   2407   2411   2423     1  0.0000000  1.2552000  3
   2408   2407   2414   2417     1  180.0000771  2.0083200  2
   2408   2407   2414   2417     1  0.0000000  1.2552000  3
   2408   2420   2432   5081     1  0.0000000  0.6508444  3
   2411   2407   2408   2420     1  180.0000771  2.0083200  2
   2411   2407   2408   2420     1  0.0000000  1.2552000  3
   2411   2407   2414   2417     1  180.0000771  2.0083200  2
   2411   2407   2414   2417     1  0.0000000  1.2552000  3
   2411   2423   2429   5050     1  0.0000000  0.6508444  3
   2414   2407   2408   2420     1  180.0000771  2.0083200  2
   2414   2407   2408   2420     1  0.0000000  1.2552000  3
   2414   2407   2411   2423     1  180.0000771  2.0083200  2
   2414   2407   2411   2423     1  0.0000000  1.2552000  3
   2414   2417   2426   2435     1  0.0000000  0.6508444  3
   2420   2432   5081   5051     1  180.0000771  0.4184000  2
   2420   2432   5081   5051     1  0.0000000  1.6024720  3
   2423   2429   5050   5020     1  180.0000771  0.4184000  2
   2423   2429   5050   5020     1  0.0000000  1.6024720  3
   2429   5050   5020   5023     1  180.0000771  0.4184000  2
   2429   5050   5020   5023     1  0.0000000  1.6024720  3
   2432   5081   5051   5054     1  180.0000771  0.4184000  2
   2432   5081   5051   5054     1  0.0000000  1.6024720  3
   2436   2437   2449   2461     1  0.0000000  0.6508444  3
   2436   2440   2452   2458     1  0.0000000  0.6508444  3
   2436   2443   2446   2455     1  0.0000000  0.6508444  3
   2437   2436   2440   2452     1  180.0000771  2.0083200  2
   2437   2436   2440   2452     1  0.0000000  1.2552000  3
   2437   2436   2443   2446     1  180.0000771  2.0083200  2
   2437   2436   2443   2446     1  0.0000000  1.2552000  3
   2437   2449   2461   5143     1  0.0000000  0.6508444  3
   2440   2436   2437   2449     1  180.0000771  2.0083200  2
   2440   2436   2437   2449     1  0.0000000  1.2552000  3
   2440   2436   2443   2446     1  180.0000771  2.0083200  2
   2440   2436   2443   2446     1  0.0000000  1.2552000  3
   2440   2452   2458   5112     1  0.0000000  0.6508444  3
   2443   2436   2437   2449     1  180.0000771  2.0083200  2
   2443   2436   2437   2449     1  0.0000000  1.2552000  3
   2443   2436   2440   2452     1  180.0000771  2.0083200  2
   2443   2436   2440   2452     1  0.0000000  1.2552000  3
   2443   2446   2455   2464     1  0.0000000  0.6508444  3
   2449   2461   5143   5113     1  180.0000771  0.4184000  2
   2449   2461   5143   5113     1  0.0000000  1.6024720  3
   2452   2458   5112   5082     1  180.0000771  0.4184000  2
   2452   2458   5112   5082     1  0.0000000  1.6024720  3
   2458   5112   5082   5085     1  180.0000771  0.4184000  2
   2458   5112   5082   5085     1  0.0000000  1.6024720  3
   2461   5143   5113   5116     1  180.0000771  0.4184000  2
   2461   5143   5113   5116     1  0.0000000  1.6024720  3
   2465   2466   2478   2490     1  0.0000000  0.6508444  3
   2465   2469   2481   2487     1  0.0000000  0.6508444  3
   2465   2472   2475   2484     1  0.0000000  0.6508444  3
   2466   2465   2469   2481     1  180.0000771  2.0083200  2
   2466   2465   2469   2481     1  0.0000000  1.2552000  3
   2466   2465   2472   2475     1  180.0000771  2.0083200  2
   2466   2465   2472   2475     1  0.0000000  1.2552000  3
   2466   2478   2490   5205     1  0.0000000  0.6508444  3
   2469   2465   2466   2478     1  180.0000771  2.0083200  2
   2469   2465   2466   2478     1  0.0000000  1.2552000  3
   2469   2465   2472   2475     1  180.0000771  2.0083200  2
   2469   2465   2472   2475     1  0.0000000  1.2552000  3
   2469   2481   2487   5174     1  0.0000000  0.6508444  3
   2472   2465   2466   2478     1  180.0000771  2.0083200  2
   2472   2465   2466   2478     1  0.0000000  1.2552000  3
   2472   2465   2469   2481     1  180.0000771  2.0083200  2
   2472   2465   2469   2481     1  0.0000000  1.2552000  3
   2472   2475   2484   2493     1  0.0000000  0.6508444  3
   2478   2490   5205   5175     1  180.0000771  0.4184000  2
   2478   2490   5205   5175     1  0.0000000  1.6024720  3
   2481   2487   5174   5144     1  180.0000771  0.4184000  2
   2481   2487   5174   5144     1  0.0000000  1.6024720  3
   2487   5174   5144   5147     1  180.0000771  0.4184000  2
   2487   5174   5144   5147     1  0.0000000  1.6024720  3
   2490   5205   5175   5178     1  180.0000771  0.4184000  2
   2490   5205   5175   5178     1  0.0000000  1.6024720  3
   2494   2495   2507   2519     1  0.0000000  0.6508444  3
   2494   2498   2510   2516     1  0.0000000  0.6508444  3
   2494   2501   2504   2513     1  0.0000000  0.6508444  3
   2495   2494   2498   2510     1  180.0000771  2.0083200  2
   2495   2494   2498   2510     1  0.0000000  1.2552000  3
   2495   2494   2501   2504     1  180.0000771  2.0083200  2
   2495   2494   2501   2504     1  0.0000000  1.2552000  3
   2495   2507   2519   5267     1  0.0000000  0.6508444  3
   2498   2494   2495   2507     1  180.0000771  2.0083200  2
   2498   2494   2495   2507     1  0.0000000  1.2552000  3
   2498   2494   2501   2504     1  180.0000771  2.0083200  2
   2498   2494   2501   2504     1  0.0000000  1.2552000  3
   2498   2510   2516   5236     1  0.0000000  0.6508444  3
   2501   2494   2495   2507     1  180.0000771  2.0083200  2
   2501   2494   2495   2507     1  0.0000000  1.2552000  3
   2501   2494   2498   2510     1  180.0000771  2.0083200  2
   2501   2494   2498   2510     1  0.0000000  1.2552000  3
   2501   2504   2513   2522     1  0.0000000  0.6508444  3
   2507   2519   5267   5237     1  180.0000771  0.4184000  2
   2507   2519   5267   5237     1  0.0000000  1.6024720  3
   2510   2516   5236   5206     1  180.0000771  0.4184000  2
   2510   2516   5236   5206     1  0.0000000  1.6024720  3
   2516   5236   5206   5209     1  180.0000771  0.4184000  2
   2516   5236   5206   5209     1  0.0000000  1.6024720  3
   2519   5267   5237   5240     1  180.0000771  0.4184000  2
   2519   5267   5237   5240     1  0.0000000  1.6024720  3
   2523   2524   2536   2548     1  0.0000000  0.6508444  3
   2523   2527   2539   2545     1  0.0000000  0.6508444  3
   2523   2530   2533   2542     1  0.0000000  0.6508444  3
   2524   2523   2527   2539     1  180.0000771  2.0083200  2
   2524   2523   2527   2539     1  0.0000000  1.2552000  3
   2524   2523   2530   2533     1  180.0000771  2.0083200  2
   2524   2523   2530   2533     1  0.0000000  1.2552000  3
   2524   2536   2548   5329     1  0.0000000  0.6508444  3
   2527   2523   2524   2536     1  180.0000771  2.0083200  2
   2527   2523   2524   2536     1  0.0000000  1.2552000  3
   2527   2523   2530   2533     1  180.0000771  2.0083200  2
   2527   2523   2530   2533     1  0.0000000  1.2552000  3
   2527   2539   2545   5298     1  0.0000000  0.6508444  3
   2530   2523   2524   2536     1  180.0000771  2.0083200  2
   2530   2523   2524   2536     1  0.0000000  1.2552000  3
   2530   2523   2527   2539     1  180.0000771  2.0083200  2
   2530   2523   2527   2539     1  0.0000000  1.2552000  3
   2530   2533   2542   2551     1  0.0000000  0.6508444  3
   2536   2548   5329   5299     1  180.0000771  0.4184000  2
   2536   2548   5329   5299     1  0.0000000  1.6024720  3
   2539   2545   5298   5268     1  180.0000771  0.4184000  2
   2539   2545   5298   5268     1  0.0000000  1.6024720  3
   2545   5298   5268   5271     1  180.0000771  0.4184000  2
   2545   5298   5268   5271     1  0.0000000  1.6024720  3
   2548   5329   5299   5302     1  180.0000771  0.4184000  2
   2548   5329   5299   5302     1  0.0000000  1.6024720  3
   2552   2553   2565   2577     1  0.0000000  0.6508444  3
   2552   2556   2568   2574     1  0.0000000  0.6508444  3
   2552   2559   2562   2571     1  0.0000000  0.6508444  3
   2553   2552   2556   2568     1  180.0000771  2.0083200  2
   2553   2552   2556   2568     1  0.0000000  1.2552000  3
   2553   2552   2559   2562     1  180.0000771  2.0083200  2
   2553   2552   2559   2562     1  0.0000000  1.2552000  3
   2553   2565   2577   5391     1  0.0000000  0.6508444  3
   2556   2552   2553   2565     1  180.0000771  2.0083200  2
   2556   2552   2553   2565     1  0.0000000  1.2552000  3
   2556   2552   2559   2562     1  180.0000771  2.0083200  2
   2556   2552   2559   2562     1  0.0000000  1.2552000  3
   2556   2568   2574   5360     1  0.0000000  0.6508444  3
   2559   2552   2553   2565     1  180.0000771  2.0083200  2
   2559   2552   2553   2565     1  0.0000000  1.2552000  3
   2559   2552   2556   2568     1  180.0000771  2.0083200  2
   2559   2552   2556   2568     1  0.0000000  1.2552000  3
   2559   2562   2571   2580     1  0.0000000  0.6508444  3
   2565   2577   5391   5361     1  180.0000771  0.4184000  2
   2565   2577   5391   5361     1  0.0000000  1.6024720  3
   2568   2574   5360   5330     1  180.0000771  0.4184000  2
   2568   2574   5360   5330     1  0.0000000  1.6024720  3
   2574   5360   5330   5333     1  180.0000771  0.4184000  2
   2574   5360   5330   5333     1  0.0000000  1.6024720  3
   2577   5391   5361   5364     1  180.0000771  0.4184000  2
   2577   5391   5361   5364     1  0.0000000  1.6024720  3
   2581   2582   2594   2606     1  0.0000000  0.6508444  3
   2581   2585   2597   2603     1  0.0000000  0.6508444  3
   2581   2588   2591   2600     1  0.0000000  0.6508444  3
   2582   2581   2585   2597     1  180.0000771  2.0083200  2
   2582   2581   2585   2597     1  0.0000000  1.2552000  3
   2582   2581   2588   2591     1  180.0000771  2.0083200  2
   2582   2581   2588   2591     1  0.0000000  1.2552000  3
   2582   2594   2606   5453     1  0.0000000  0.6508444  3
   2585   2581   2582   2594     1  180.0000771  2.0083200  2
   2585   2581   2582   2594     1  0.0000000  1.2552000  3
   2585   2581   2588   2591     1  180.0000771  2.0083200  2
   2585   2581   2588   2591     1  0.0000000  1.2552000  3
   2585   2597   2603   5422     1  0.0000000  0.6508444  3
   2588   2581   2582   2594     1  180.0000771  2.0083200  2
   2588   2581   2582   2594     1  0.0000000  1.2552000  3
   2588   2581   2585   2597     1  180.0000771  2.0083200  2
   2588   2581   2585   2597     1  0.0000000  1.2552000  3
   2588   2591   2600   2609     1  0.0000000  0.6508444  3
   2594   2606   5453   5423     1  180.0000771  0.4184000  2
   2594   2606   5453   5423     1  0.0000000  1.6024720  3
   2597   2603   5422   5392     1  180.0000771  0.4184000  2
   2597   2603   5422   5392     1  0.0000000  1.6024720  3
   2603   5422   5392   5395     1  180.0000771  0.4184000  2
   2603   5422   5392   5395     1  0.0000000  1.6024720  3
   2606   5453   5423   5426     1  180.0000771  0.4184000  2
   2606   5453   5423   5426     1  0.0000000  1.6024720  3
   2610   2611   2623   2635     1  0.0000000  0.6508444  3
   2610   2614   2626   2632     1  0.0000000  0.6508444  3
   2610   2617   2620   2629     1  0.0000000  0.6508444  3
   2611   2610   2614   2626     1  180.0000771  2.0083200  2
   2611   2610   2614   2626     1  0.0000000  1.2552000  3
   2611   2610   2617   2620     1  180.0000771  2.0083200  2
   2611   2610   2617   2620     1  0.0000000  1.2552000  3
   2611   2623   2635   5515     1  0.0000000  0.6508444  3
   2614   2610   2611   2623     1  180.0000771  2.0083200  2
   2614   2610   2611   2623     1  0.0000000  1.2552000  3
   2614   2610   2617   2620     1  180.0000771  2.0083200  2
   2614   2610   2617   2620     1  0.0000000  1.2552000  3
   2614   2626   2632   5484     1  0.0000000  0.6508444  3
   2617   2610   2611   2623     1  180.0000771  2.0083200  2
   2617   2610   2611   2623     1  0.0000000  1.2552000  3
   2617   2610   2614   2626     1  180.0000771  2.0083200  2
   2617   2610   2614   2626     1  0.0000000  1.2552000  3
   2617   2620   2629   2638     1  0.0000000  0.6508444  3
   2623   2635   5515   5485     1  180.0000771  0.4184000  2
   2623   2635   5515   5485     1  0.0000000  1.6024720  3
   2626   2632   5484   5454     1  180.0000771  0.4184000  2
   2626   2632   5484   5454     1  0.0000000  1.6024720  3
   2632   5484   5454   5457     1  180.0000771  0.4184000  2
   2632   5484   5454   5457     1  0.0000000  1.6024720  3
   2635   5515   5485   5488     1  180.0000771  0.4184000  2
   2635   5515   5485   5488     1  0.0000000  1.6024720  3
   2639   2640   2652   2664     1  0.0000000  0.6508444  3
   2639   2643   2655   2661     1  0.0000000  0.6508444  3
   2639   2646   2649   2658     1  0.0000000  0.6508444  3
   2640   2639   2643   2655     1  180.0000771  2.0083200  2
   2640   2639   2643   2655     1  0.0000000  1.2552000  3
   2640   2639   2646   2649     1  180.0000771  2.0083200  2
   2640   2639   2646   2649     1  0.0000000  1.2552000  3
   2640   2652   2664   5577     1  0.0000000  0.6508444  3
   2643   2639   2640   2652     1  180.0000771  2.0083200  2
   2643   2639   2640   2652     1  0.0000000  1.2552000  3
   2643   2639   2646   2649     1  180.0000771  2.0083200  2
   2643   2639   2646   2649     1  0.0000000  1.2552000  3
   2643   2655   2661   5546     1  0.0000000  0.6508444  3
   2646   2639   2640   2652     1  180.0000771  2.0083200  2
   2646   2639   2640   2652     1  0.0000000  1.2552000  3
   2646   2639   2643   2655     1  180.0000771  2.0083200  2
   2646   2639   2643   2655     1  0.0000000  1.2552000  3
   2646   2649   2658   2667     1  0.0000000  0.6508444  3
   2652   2664   5577   5547     1  180.0000771  0.4184000  2
   2652   2664   5577   5547     1  0.0000000  1.6024720  3
   2655   2661   5546   5516     1  180.0000771  0.4184000  2
   2655   2661   5546   5516     1  0.0000000  1.6024720  3
   2661   5546   5516   5519     1  180.0000771  0.4184000  2
   2661   5546   5516   5519     1  0.0000000  1.6024720  3
   2664   5577   5547   5550     1  180.0000771  0.4184000  2
   2664   5577   5547   5550     1  0.0000000  1.6024720  3
   2668   2669   2681   2693     1  0.0000000  0.6508444  3
   2668   2672   2684   2690     1  0.0000000  0.6508444  3
   2668   2675   2678   2687     1  0.0000000  0.6508444  3
   2669   2668   2672   2684     1  180.0000771  2.0083200  2
   2669   2668   2672   2684     1  0.0000000  1.2552000  3
   2669   2668   2675   2678     1  180.0000771  2.0083200  2
   2669   2668   2675   2678     1  0.0000000  1.2552000  3
   2669   2681   2693   5639     1  0.0000000  0.6508444  3
   2672   2668   2669   2681     1  180.0000771  2.0083200  2
   2672   2668   2669   2681     1  0.0000000  1.2552000  3
   2672   2668   2675   2678     1  180.0000771  2.0083200  2
   2672   2668   2675   2678     1  0.0000000  1.2552000  3
   2672   2684   2690   5608     1  0.0000000  0.6508444  3
   2675   2668   2669   2681     1  180.0000771  2.0083200  2
   2675   2668   2669   2681     1  0.0000000  1.2552000  3
   2675   2668   2672   2684     1  180.0000771  2.0083200  2
   2675   2668   2672   2684     1  0.0000000  1.2552000  3
   2675   2678   2687   2696     1  0.0000000  0.6508444  3
   2681   2693   5639   5609     1  180.0000771  0.4184000  2
   2681   2693   5639   5609     1  0.0000000  1.6024720  3
   2684   2690   5608   5578     1  180.0000771  0.4184000  2
   2684   2690   5608   5578     1  0.0000000  1.6024720  3
   2690   5608   5578   5581     1  180.0000771  0.4184000  2
   2690   5608   5578   5581     1  0.0000000  1.6024720  3
   2693   5639   5609   5612     1  180.0000771  0.4184000  2
   2693   5639   5609   5612     1  0.0000000  1.6024720  3
   2697   2698   2710   2722     1  0.0000000  0.6508444  3
   2697   2701   2713   2719     1  0.0000000  0.6508444  3
   2697   2704   2707   2716     1  0.0000000  0.6508444  3
   2698   2697   2701   2713     1  180.0000771  2.0083200  2
   2698   2697   2701   2713     1  0.0000000  1.2552000  3
   2698   2697   2704   2707     1  180.0000771  2.0083200  2
   2698   2697   2704   2707     1  0.0000000  1.2552000  3
   2698   2710   2722   5701     1  0.0000000  0.6508444  3
   2701   2697   2698   2710     1  180.0000771  2.0083200  2
   2701   2697   2698   2710     1  0.0000000  1.2552000  3
   2701   2697   2704   2707     1  180.0000771  2.0083200  2
   2701   2697   2704   2707     1  0.0000000  1.2552000  3
   2701   2713   2719   5670     1  0.0000000  0.6508444  3
   2704   2697   2698   2710     1  180.0000771  2.0083200  2
   2704   2697   2698   2710     1  0.0000000  1.2552000  3
   2704   2697   2701   2713     1  180.0000771  2.0083200  2
   2704   2697   2701   2713     1  0.0000000  1.2552000  3
   2704   2707   2716   2725     1  0.0000000  0.6508444  3
   2710   2722   5701   5671     1  180.0000771  0.4184000  2
   2710   2722   5701   5671     1  0.0000000  1.6024720  3
   2713   2719   5670   5640     1  180.0000771  0.4184000  2
   2713   2719   5670   5640     1  0.0000000  1.6024720  3
   2719   5670   5640   5643     1  180.0000771  0.4184000  2
   2719   5670   5640   5643     1  0.0000000  1.6024720  3
   2722   5701   5671   5674     1  180.0000771  0.4184000  2
   2722   5701   5671   5674     1  0.0000000  1.6024720  3
   2726   2729   2732   2735     1  0.0000000  0.6508444  3
   2729   2732   2735   2736     1  180.0000771  2.0083200  2
   2729   2732   2735   2736     1  0.0000000  1.2552000  3
   2729   2732   2735   2746     1  180.0000771  2.0083200  2
   2729   2732   2735   2746     1  0.0000000  1.2552000  3
   2732   2729   2726   2756     1  0.0000000  0.6508444  3
   2732   2735   2736   2739     1  180.0000771  2.0083200  2
   2732   2735   2736   2739     1  0.0000000  1.2552000  3
   2732   2735   2746   2749     1  180.0000771  2.0083200  2
   2732   2735   2746   2749     1  0.0000000  1.2552000  3
   2735   2736   2739   2742     1  0.0000000  0.6508444  3
   2735   2746   2749   2752     1  0.0000000  0.6508444  3
   2736   2735   2746   2749     1  180.0000771  2.0083200  2
   2736   2735   2746   2749     1  0.0000000  1.2552000  3
   2736   2739   2742   2743     1  180.0000771  0.0000000  2
   2736   2739   2742   2744     1  180.0000771  0.0000000  2
   2739   2736   2735   2746     1  180.0000771  2.0083200  2
   2739   2736   2735   2746     1  0.0000000  1.2552000  3
   2746   2749   2752   2753     1  180.0000771  0.0000000  2
   2746   2749   2752   2754     1  180.0000771  0.0000000  2
   2757   2760   2763   2766     1  0.0000000  0.6508444  3
   2760   2763   2766   2767     1  180.0000771  2.0083200  2
   2760   2763   2766   2767     1  0.0000000  1.2552000  3
   2760   2763   2766   2777     1  180.0000771  2.0083200  2
   2760   2763   2766   2777     1  0.0000000  1.2552000  3
   2763   2766   2767   2770     1  180.0000771  2.0083200  2
   2763   2766   2767   2770     1  0.0000000  1.2552000  3
   2763   2766   2777   2780     1  180.0000771  2.0083200  2
   2763   2766   2777   2780     1  0.0000000  1.2552000  3
   2763   2760   2757   2787     1  0.0000000  0.6508444  3
   2766   2767   2770   2773     1  0.0000000  0.6508444  3
   2766   2777   2780   2783     1  0.0000000  0.6508444  3
   2767   2770   2773   2774     1  180.0000771  0.0000000  2
   2767   2770   2773   2775     1  180.0000771  0.0000000  2
   2767   2766   2777   2780     1  180.0000771  2.0083200  2
   2767   2766   2777   2780     1  0.0000000  1.2552000  3
   2770   2767   2766   2777     1  180.0000771  2.0083200  2
   2770   2767   2766   2777     1  0.0000000  1.2552000  3
   2777   2780   2783   2784     1  180.0000771  0.0000000  2
   2777   2780   2783   2785     1  180.0000771  0.0000000  2
   2788   2791   2794   2797     1  0.0000000  0.6508444  3
   2791   2794   2797   2798     1  180.0000771  2.0083200  2
   2791   2794   2797   2798     1  0.0000000  1.2552000  3
   2791   2794   2797   2808     1  180.0000771  2.0083200  2
   2791   2794   2797   2808     1  0.0000000  1.2552000  3
   2794   2791   2788   2818     1  0.0000000  0.6508444  3
   2794   2797   2798   2801     1  180.0000771  2.0083200  2
   2794   2797   2798   2801     1  0.0000000  1.2552000  3
   2794   2797   2808   2811     1  180.0000771  2.0083200  2
   2794   2797   2808   2811     1  0.0000000  1.2552000  3
   2797   2798   2801   2804     1  0.0000000  0.6508444  3
   2797   2808   2811   2814     1  0.0000000  0.6508444  3
   2798   2797   2808   2811     1  180.0000771  2.0083200  2
   2798   2797   2808   2811     1  0.0000000  1.2552000  3
   2798   2801   2804   2805     1  180.0000771  0.0000000  2
   2798   2801   2804   2806     1  180.0000771  0.0000000  2
   2801   2798   2797   2808     1  180.0000771  2.0083200  2
   2801   2798   2797   2808     1  0.0000000  1.2552000  3
   2808   2811   2814   2815     1  180.0000771  0.0000000  2
   2808   2811   2814   2816     1  180.0000771  0.0000000  2
   2819   2822   2825   2828     1  0.0000000  0.6508444  3
   2822   2825   2828   2829     1  180.0000771  2.0083200  2
   2822   2825   2828   2829     1  0.0000000  1.2552000  3
   2822   2825   2828   2839     1  180.0000771  2.0083200  2
   2822   2825   2828   2839     1  0.0000000  1.2552000  3
   2825   2828   2829   2832     1  180.0000771  2.0083200  2
   2825   2828   2829   2832     1  0.0000000  1.2552000  3
   2825   2828   2839   2842     1  180.0000771  2.0083200  2
   2825   2828   2839   2842     1  0.0000000  1.2552000  3
   2825   2822   2819   2849     1  0.0000000  0.6508444  3
   2828   2829   2832   2835     1  0.0000000  0.6508444  3
   2828   2839   2842   2845     1  0.0000000  0.6508444  3
   2829   2832   2835   2836     1  180.0000771  0.0000000  2
   2829   2832   2835   2837     1  180.0000771  0.0000000  2
   2829   2828   2839   2842     1  180.0000771  2.0083200  2
   2829   2828   2839   2842     1  0.0000000  1.2552000  3
   2832   2829   2828   2839     1  180.0000771  2.0083200  2
   2832   2829   2828   2839     1  0.0000000  1.2552000  3
   2839   2842   2845   2846     1  180.0000771  0.0000000  2
   2839   2842   2845   2847     1  180.0000771  0.0000000  2
   2850   2853   2856   2859     1  0.0000000  0.6508444  3
   2853   2856   2859   2860     1  180.0000771  2.0083200  2
   2853   2856   2859   2860     1  0.0000000  1.2552000  3
   2853   2856   2859   2870     1  180.0000771  2.0083200  2
   2853   2856   2859   2870     1  0.0000000  1.2552000  3
   2856   2853   2850   2880     1  0.0000000  0.6508444  3
   2856   2859   2860   2863     1  180.0000771  2.0083200  2
   2856   2859   2860   2863     1  0.0000000  1.2552000  3
   2856   2859   2870   2873     1  180.0000771  2.0083200  2
   2856   2859   2870   2873     1  0.0000000  1.2552000  3
   2859   2860   2863   2866     1  0.0000000  0.6508444  3
   2859   2870   2873   2876     1  0.0000000  0.6508444  3
   2860   2859   2870   2873     1  180.0000771  2.0083200  2
   2860   2859   2870   2873     1  0.0000000  1.2552000  3
   2860   2863   2866   2867     1  180.0000771  0.0000000  2
   2860   2863   2866   2868     1  180.0000771  0.0000000  2
   2863   2860   2859   2870     1  180.0000771  2.0083200  2
   2863   2860   2859   2870     1  0.0000000  1.2552000  3
   2870   2873   2876   2877     1  180.0000771  0.0000000  2
   2870   2873   2876   2878     1  180.0000771  0.0000000  2
   2881   2884   2887   2890     1  0.0000000  0.6508444  3
   2884   2887   2890   2891     1  180.0000771  2.0083200  2
   2884   2887   2890   2891     1  0.0000000  1.2552000  3
   2884   2887   2890   2901     1  180.0000771  2.0083200  2
   2884   2887   2890   2901     1  0.0000000  1.2552000  3
   2887   2890   2891   2894     1  180.0000771  2.0083200  2
   2887   2890   2891   2894     1  0.0000000  1.2552000  3
   2887   2890   2901   2904     1  180.0000771  2.0083200  2
   2887   2890   2901   2904     1  0.0000000  1.2552000  3
   2887   2884   2881   2911     1  0.0000000  0.6508444  3
   2890   2891   2894   2897     1  0.0000000  0.6508444  3
   2890   2901   2904   2907     1  0.0000000  0.6508444  3
   2891   2894   2897   2898     1  180.0000771  0.0000000  2
   2891   2894   2897   2899     1  180.0000771  0.0000000  2
   2891   2890   2901   2904     1  180.0000771  2.0083200  2
   2891   2890   2901   2904     1  0.0000000  1.2552000  3
   2894   2891   2890   2901     1  180.0000771  2.0083200  2
   2894   2891   2890   2901     1  0.0000000  1.2552000  3
   2901   2904   2907   2908     1  180.0000771  0.0000000  2
   2901   2904   2907   2909     1  180.0000771  0.0000000  2
   2912   2915   2918   2921     1  0.0000000  0.6508444  3
   2915   2918   2921   2922     1  180.0000771  2.0083200  2
   2915   2918   2921   2922     1  0.0000000  1.2552000  3
   2915   2918   2921   2932     1  180.0000771  2.0083200  2
   2915   2918   2921   2932     1  0.0000000  1.2552000  3
   2918   2915   2912   2942     1  0.0000000  0.6508444  3
   2918   2921   2922   2925     1  180.0000771  2.0083200  2
   2918   2921   2922   2925     1  0.0000000  1.2552000  3
   2918   2921   2932   2935     1  180.0000771  2.0083200  2
   2918   2921   2932   2935     1  0.0000000  1.2552000  3
   2921   2922   2925   2928     1  0.0000000  0.6508444  3
   2921   2932   2935   2938     1  0.0000000  0.6508444  3
   2922   2921   2932   2935     1  180.0000771  2.0083200  2
   2922   2921   2932   2935     1  0.0000000  1.2552000  3
   2922   2925   2928   2929     1  180.0000771  0.0000000  2
   2922   2925   2928   2930     1  180.0000771  0.0000000  2
   2925   2922   2921   2932     1  180.0000771  2.0083200  2
   2925   2922   2921   2932     1  0.0000000  1.2552000  3
   2932   2935   2938   2939     1  180.0000771  0.0000000  2
   2932   2935   2938   2940     1  180.0000771  0.0000000  2
   2943   2946   2949   2952     1  0.0000000  0.6508444  3
   2946   2949   2952   2953     1  180.0000771  2.0083200  2
   2946   2949   2952   2953     1  0.0000000  1.2552000  3
   2946   2949   2952   2963     1  180.0000771  2.0083200  2
   2946   2949   2952   2963     1  0.0000000  1.2552000  3
   2949   2952   2953   2956     1  180.0000771  2.0083200  2
   2949   2952   2953   2956     1  0.0000000  1.2552000  3
   2949   2952   2963   2966     1  180.0000771  2.0083200  2
   2949   2952   2963   2966     1  0.0000000  1.2552000  3
   2949   2946   2943   2973     1  0.0000000  0.6508444  3
   2952   2953   2956   2959     1  0.0000000  0.6508444  3
   2952   2963   2966   2969     1  0.0000000  0.6508444  3
   2953   2956   2959   2960     1  180.0000771  0.0000000  2
   2953   2956   2959   2961     1  180.0000771  0.0000000  2
   2953   2952   2963   2966     1  180.0000771  2.0083200  2
   2953   2952   2963   2966     1  0.0000000  1.2552000  3
   2956   2953   2952   2963     1  180.0000771  2.0083200  2
   2956   2953   2952   2963     1  0.0000000  1.2552000  3
   2963   2966   2969   2970     1  180.0000771  0.0000000  2
   2963   2966   2969   2971     1  180.0000771  0.0000000  2
   2974   2977   2980   2983     1  0.0000000  0.6508444  3
   2977   2980   2983   2984     1  180.0000771  2.0083200  2
   2977   2980   2983   2984     1  0.0000000  1.2552000  3
   2977   2980   2983   2994     1  180.0000771  2.0083200  2
   2977   2980   2983   2994     1  0.0000000  1.2552000  3
   2980   2977   2974   3004     1  0.0000000  0.6508444  3
   2980   2983   2984   2987     1  180.0000771  2.0083200  2
   2980   2983   2984   2987     1  0.0000000  1.2552000  3
   2980   2983   2994   2997     1  180.0000771  2.0083200  2
   2980   2983   2994   2997     1  0.0000000  1.2552000  3
   2983   2984   2987   2990     1  0.0000000  0.6508444  3
   2983   2994   2997   3000     1  0.0000000  0.6508444  3
   2984   2983   2994   2997     1  180.0000771  2.0083200  2
   2984   2983   2994   2997     1  0.0000000  1.2552000  3
   2984   2987   2990   2991     1  180.0000771  0.0000000  2
   2984   2987   2990   2992     1  180.0000771  0.0000000  2
   2987   2984   2983   2994     1  180.0000771  2.0083200  2
   2987   2984   2983   2994     1  0.0000000  1.2552000  3
   2994   2997   3000   3001     1  180.0000771  0.0000000  2
   2994   2997   3000   3002     1  180.0000771  0.0000000  2
   3005   3008   3011   3014     1  0.0000000  0.6508444  3
   3008   3011   3014   3015     1  180.0000771  2.0083200  2
   3008   3011   3014   3015     1  0.0000000  1.2552000  3
   3008   3011   3014   3025     1  180.0000771  2.0083200  2
   3008   3011   3014   3025     1  0.0000000  1.2552000  3
   3011   3014   3015   3018     1  180.0000771  2.0083200  2
   3011   3014   3015   3018     1  0.0000000  1.2552000  3
   3011   3014   3025   3028     1  180.0000771  2.0083200  2
   3011   3014   3025   3028     1  0.0000000  1.2552000  3
   3011   3008   3005   3035     1  0.0000000  0.6508444  3
   3014   3015   3018   3021     1  0.0000000  0.6508444  3
   3014   3025   3028   3031     1  0.0000000  0.6508444  3
   3015   3018   3021   3022     1  180.0000771  0.0000000  2
   3015   3018   3021   3023     1  180.0000771  0.0000000  2
   3015   3014   3025   3028     1  180.0000771  2.0083200  2
   3015   3014   3025   3028     1  0.0000000  1.2552000  3
   3018   3015   3014   3025     1  180.0000771  2.0083200  2
   3018   3015   3014   3025     1  0.0000000  1.2552000  3
   3025   3028   3031   3032     1  180.0000771  0.0000000  2
   3025   3028   3031   3033     1  180.0000771  0.0000000  2
   3036   3039   3042   3045     1  0.0000000  0.6508444  3
   3039   3042   3045   3046     1  180.0000771  2.0083200  2
   3039   3042   3045   3046     1  0.0000000  1.2552000  3
   3039   3042   3045   3056     1  180.0000771  2.0083200  2
   3039   3042   3045   3056     1  0.0000000  1.2552000  3
   3042   3039   3036   3066     1  0.0000000  0.6508444  3
   3042   3045   3046   3049     1  180.0000771  2.0083200  2
   3042   3045   3046   3049     1  0.0000000  1.2552000  3
   3042   3045   3056   3059     1  180.0000771  2.0083200  2
   3042   3045   3056   3059     1  0.0000000  1.2552000  3
   3045   3046   3049   3052     1  0.0000000  0.6508444  3
   3045   3056   3059   3062     1  0.0000000  0.6508444  3
   3046   3045   3056   3059     1  180.0000771  2.0083200  2
   3046   3045   3056   3059     1  0.0000000  1.2552000  3
   3046   3049   3052   3053     1  180.0000771  0.0000000  2
   3046   3049   3052   3054     1  180.0000771  0.0000000  2
   3049   3046   3045   3056     1  180.0000771  2.0083200  2
   3049   3046   3045   3056     1  0.0000000  1.2552000  3
   3056   3059   3062   3063     1  180.0000771  0.0000000  2
   3056   3059   3062   3064     1  180.0000771  0.0000000  2
   3067   3070   3073   3076     1  0.0000000  0.6508444  3
   3070   3073   3076   3077     1  180.0000771  2.0083200  2
   3070   3073   3076   3077     1  0.0000000  1.2552000  3
   3070   3073   3076   3087     1  180.0000771  2.0083200  2
   3070   3073   3076   3087     1  0.0000000  1.2552000  3
   3073   3076   3077   3080     1  180.0000771  2.0083200  2
   3073   3076   3077   3080     1  0.0000000  1.2552000  3
   3073   3076   3087   3090     1  180.0000771  2.0083200  2
   3073   3076   3087   3090     1  0.0000000  1.2552000  3
   3073   3070   3067   3097     1  0.0000000  0.6508444  3
   3076   3077   3080   3083     1  0.0000000  0.6508444  3
   3076   3087   3090   3093     1  0.0000000  0.6508444  3
   3077   3080   3083   3084     1  180.0000771  0.0000000  2
   3077   3080   3083   3085     1  180.0000771  0.0000000  2
   3077   3076   3087   3090     1  180.0000771  2.0083200  2
   3077   3076   3087   3090     1  0.0000000  1.2552000  3
   3080   3077   3076   3087     1  180.0000771  2.0083200  2
   3080   3077   3076   3087     1  0.0000000  1.2552000  3
   3087   3090   3093   3094     1  180.0000771  0.0000000  2
   3087   3090   3093   3095     1  180.0000771  0.0000000  2
   3098   3101   3104   3107     1  0.0000000  0.6508444  3
   3101   3104   3107   3108     1  180.0000771  2.0083200  2
   3101   3104   3107   3108     1  0.0000000  1.2552000  3
   3101   3104   3107   3118     1  180.0000771  2.0083200  2
   3101   3104   3107   3118     1  0.0000000  1.2552000  3
   3104   3101   3098   3128     1  0.0000000  0.6508444  3
   3104   3107   3108   3111     1  180.0000771  2.0083200  2
   3104   3107   3108   3111     1  0.0000000  1.2552000  3
   3104   3107   3118   3121     1  180.0000771  2.0083200  2
   3104   3107   3118   3121     1  0.0000000  1.2552000  3
   3107   3108   3111   3114     1  0.0000000  0.6508444  3
   3107   3118   3121   3124     1  0.0000000  0.6508444  3
   3108   3107   3118   3121     1  180.0000771  2.0083200  2
   3108   3107   3118   3121     1  0.0000000  1.2552000  3
   3108   3111   3114   3115     1  180.0000771  0.0000000  2
   3108   3111   3114   3116     1  180.0000771  0.0000000  2
   3111   3108   3107   3118     1  180.0000771  2.0083200  2
   3111   3108   3107   3118     1  0.0000000  1.2552000  3
   3118   3121   3124   3125     1  180.0000771  0.0000000  2
   3118   3121   3124   3126     1  180.0000771  0.0000000  2
   3129   3132   3135   3138     1  0.0000000  0.6508444  3
   3132   3135   3138   3139     1  180.0000771  2.0083200  2
   3132   3135   3138   3139     1  0.0000000  1.2552000  3
   3132   3135   3138   3149     1  180.0000771  2.0083200  2
   3132   3135   3138   3149     1  0.0000000  1.2552000  3
   3135   3138   3139   3142     1  180.0000771  2.0083200  2
   3135   3138   3139   3142     1  0.0000000  1.2552000  3
   3135   3138   3149   3152     1  180.0000771  2.0083200  2
   3135   3138   3149   3152     1  0.0000000  1.2552000  3
   3135   3132   3129   3159     1  0.0000000  0.6508444  3
   3138   3139   3142   3145     1  0.0000000  0.6508444  3
   3138   3149   3152   3155     1  0.0000000  0.6508444  3
   3139   3142   3145   3146     1  180.0000771  0.0000000  2
   3139   3142   3145   3147     1  180.0000771  0.0000000  2
   3139   3138   3149   3152     1  180.0000771  2.0083200  2
   3139   3138   3149   3152     1  0.0000000  1.2552000  3
   3142   3139   3138   3149     1  180.0000771  2.0083200  2
   3142   3139   3138   3149     1  0.0000000  1.2552000  3
   3149   3152   3155   3156     1  180.0000771  0.0000000  2
   3149   3152   3155   3157     1  180.0000771  0.0000000  2
   3160   3163   3166   3169     1  0.0000000  0.6508444  3
   3163   3166   3169   3170     1  180.0000771  2.0083200  2
   3163   3166   3169   3170     1  0.0000000  1.2552000  3
   3163   3166   3169   3180     1  180.0000771  2.0083200  2
   3163   3166   3169   3180     1  0.0000000  1.2552000  3
   3166   3163   3160   3190     1  0.0000000  0.6508444  3
   3166   3169   3170   3173     1  180.0000771  2.0083200  2
   3166   3169   3170   3173     1  0.0000000  1.2552000  3
   3166   3169   3180   3183     1  180.0000771  2.0083200  2
   3166   3169   3180   3183     1  0.0000000  1.2552000  3
   3169   3170   3173   3176     1  0.0000000  0.6508444  3
   3169   3180   3183   3186     1  0.0000000  0.6508444  3
   3170   3169   3180   3183     1  180.0000771  2.0083200  2
   3170   3169   3180   3183     1  0.0000000  1.2552000  3
   3170   3173   3176   3177     1  180.0000771  0.0000000  2
   3170   3173   3176   3178     1  180.0000771  0.0000000  2
   3173   3170   3169   3180     1  180.0000771  2.0083200  2
   3173   3170   3169   3180     1  0.0000000  1.2552000  3
   3180   3183   3186   3187     1  180.0000771  0.0000000  2
   3180   3183   3186   3188     1  180.0000771  0.0000000  2
   3191   3194   3197   3200     1  0.0000000  0.6508444  3
   3194   3197   3200   3201     1  180.0000771  2.0083200  2
   3194   3197   3200   3201     1  0.0000000  1.2552000  3
   3194   3197   3200   3211     1  180.0000771  2.0083200  2
   3194   3197   3200   3211     1  0.0000000  1.2552000  3
   3197   3200   3201   3204     1  180.0000771  2.0083200  2
   3197   3200   3201   3204     1  0.0000000  1.2552000  3
   3197   3200   3211   3214     1  180.0000771  2.0083200  2
   3197   3200   3211   3214     1  0.0000000  1.2552000  3
   3197   3194   3191   3221     1  0.0000000  0.6508444  3
   3200   3201   3204   3207     1  0.0000000  0.6508444  3
   3200   3211   3214   3217     1  0.0000000  0.6508444  3
   3201   3204   3207   3208     1  180.0000771  0.0000000  2
   3201   3204   3207   3209     1  180.0000771  0.0000000  2
   3201   3200   3211   3214     1  180.0000771  2.0083200  2
   3201   3200   3211   3214     1  0.0000000  1.2552000  3
   3204   3201   3200   3211     1  180.0000771  2.0083200  2
   3204   3201   3200   3211     1  0.0000000  1.2552000  3
   3211   3214   3217   3218     1  180.0000771  0.0000000  2
   3211   3214   3217   3219     1  180.0000771  0.0000000  2
   3222   3225   3228   3231     1  0.0000000  0.6508444  3
   3225   3228   3231   3232     1  180.0000771  2.0083200  2
   3225   3228   3231   3232     1  0.0000000  1.2552000  3
   3225   3228   3231   3242     1  180.0000771  2.0083200  2
   3225   3228   3231   3242     1  0.0000000  1.2552000  3
   3228   3225   3222   3252     1  0.0000000  0.6508444  3
   3228   3231   3232   3235     1  180.0000771  2.0083200  2
   3228   3231   3232   3235     1  0.0000000  1.2552000  3
   3228   3231   3242   3245     1  180.0000771  2.0083200  2
   3228   3231   3242   3245     1  0.0000000  1.2552000  3
   3231   3232   3235   3238     1  0.0000000  0.6508444  3
   3231   3242   3245   3248     1  0.0000000  0.6508444  3
   3232   3231   3242   3245     1  180.0000771  2.0083200  2
   3232   3231   3242   3245     1  0.0000000  1.2552000  3
   3232   3235   3238   3239     1  180.0000771  0.0000000  2
   3232   3235   3238   3240     1  180.0000771  0.0000000  2
   3235   3232   3231   3242     1  180.0000771  2.0083200  2
   3235   3232   3231   3242     1  0.0000000  1.2552000  3
   3242   3245   3248   3249     1  180.0000771  0.0000000  2
   3242   3245   3248   3250     1  180.0000771  0.0000000  2
   3253   3256   3259   3262     1  0.0000000  0.6508444  3
   3256   3259   3262   3263     1  180.0000771  2.0083200  2
   3256   3259   3262   3263     1  0.0000000  1.2552000  3
   3256   3259   3262   3273     1  180.0000771  2.0083200  2
   3256   3259   3262   3273     1  0.0000000  1.2552000  3
   3259   3262   3263   3266     1  180.0000771  2.0083200  2
   3259   3262   3263   3266     1  0.0000000  1.2552000  3
   3259   3262   3273   3276     1  180.0000771  2.0083200  2
   3259   3262   3273   3276     1  0.0000000  1.2552000  3
   3259   3256   3253   3283     1  0.0000000  0.6508444  3
   3262   3263   3266   3269     1  0.0000000  0.6508444  3
   3262   3273   3276   3279     1  0.0000000  0.6508444  3
   3263   3266   3269   3270     1  180.0000771  0.0000000  2
   3263   3266   3269   3271     1  180.0000771  0.0000000  2
   3263   3262   3273   3276     1  180.0000771  2.0083200  2
   3263   3262   3273   3276     1  0.0000000  1.2552000  3
   3266   3263   3262   3273     1  180.0000771  2.0083200  2
   3266   3263   3262   3273     1  0.0000000  1.2552000  3
   3273   3276   3279   3280     1  180.0000771  0.0000000  2
   3273   3276   3279   3281     1  180.0000771  0.0000000  2
   3284   3287   3290   3293     1  0.0000000  0.6508444  3
   3287   3290   3293   3294     1  180.0000771  2.0083200  2
   3287   3290   3293   3294     1  0.0000000  1.2552000  3
   3287   3290   3293   3304     1  180.0000771  2.0083200  2
   3287   3290   3293   3304     1  0.0000000  1.2552000  3
   3290   3287   3284   3314     1  0.0000000  0.6508444  3
   3290   3293   3294   3297     1  180.0000771  2.0083200  2
   3290   3293   3294   3297     1  0.0000000  1.2552000  3
   3290   3293   3304   3307     1  180.0000771  2.0083200  2
   3290   3293   3304   3307     1  0.0000000  1.2552000  3
   3293   3294   3297   3300     1  0.0000000  0.6508444  3
   3293   3304   3307   3310     1  0.0000000  0.6508444  3
   3294   3293   3304   3307     1  180.0000771  2.0083200  2
   3294   3293   3304   3307     1  0.0000000  1.2552000  3
   3294   3297   3300   3301     1  180.0000771  0.0000000  2
   3294   3297   3300   3302     1  180.0000771  0.0000000  2
   3297   3294   3293   3304     1  180.0000771  2.0083200  2
   3297   3294   3293   3304     1  0.0000000  1.2552000  3
   3304   3307   3310   3311     1  180.0000771  0.0000000  2
   3304   3307   3310   3312     1  180.0000771  0.0000000  2
   3315   3318   3321   3324     1  0.0000000  0.6508444  3
   3318   3321   3324   3325     1  180.0000771  2.0083200  2
   3318   3321   3324   3325     1  0.0000000  1.2552000  3
   3318   3321   3324   3335     1  180.0000771  2.0083200  2
   3318   3321   3324   3335     1  0.0000000  1.2552000  3
   3321   3324   3325   3328     1  180.0000771  2.0083200  2
   3321   3324   3325   3328     1  0.0000000  1.2552000  3
   3321   3324   3335   3338     1  180.0000771  2.0083200  2
   3321   3324   3335   3338     1  0.0000000  1.2552000  3
   3321   3318   3315   3345     1  0.0000000  0.6508444  3
   3324   3325   3328   3331     1  0.0000000  0.6508444  3
   3324   3335   3338   3341     1  0.0000000  0.6508444  3
   3325   3328   3331   3332     1  180.0000771  0.0000000  2
   3325   3328   3331   3333     1  180.0000771  0.0000000  2
   3325   3324   3335   3338     1  180.0000771  2.0083200  2
   3325   3324   3335   3338     1  0.0000000  1.2552000  3
   3328   3325   3324   3335     1  180.0000771  2.0083200  2
   3328   3325   3324   3335     1  0.0000000  1.2552000  3
   3335   3338   3341   3342     1  180.0000771  0.0000000  2
   3335   3338   3341   3343     1  180.0000771  0.0000000  2
   3346   3349   3352   3355     1  0.0000000  0.6508444  3
   3349   3352   3355   3356     1  180.0000771  2.0083200  2
   3349   3352   3355   3356     1  0.0000000  1.2552000  3
   3349   3352   3355   3366     1  180.0000771  2.0083200  2
   3349   3352   3355   3366     1  0.0000000  1.2552000  3
   3352   3349   3346   3376     1  0.0000000  0.6508444  3
   3352   3355   3356   3359     1  180.0000771  2.0083200  2
   3352   3355   3356   3359     1  0.0000000  1.2552000  3
   3352   3355   3366   3369     1  180.0000771  2.0083200  2
   3352   3355   3366   3369     1  0.0000000  1.2552000  3
   3355   3356   3359   3362     1  0.0000000  0.6508444  3
   3355   3366   3369   3372     1  0.0000000  0.6508444  3
   3356   3355   3366   3369     1  180.0000771  2.0083200  2
   3356   3355   3366   3369     1  0.0000000  1.2552000  3
   3356   3359   3362   3363     1  180.0000771  0.0000000  2
   3356   3359   3362   3364     1  180.0000771  0.0000000  2
   3359   3356   3355   3366     1  180.0000771  2.0083200  2
   3359   3356   3355   3366     1  0.0000000  1.2552000  3
   3366   3369   3372   3373     1  180.0000771  0.0000000  2
   3366   3369   3372   3374     1  180.0000771  0.0000000  2
   3377   3380   3383   3386     1  0.0000000  0.6508444  3
   3380   3383   3386   3387     1  180.0000771  2.0083200  2
   3380   3383   3386   3387     1  0.0000000  1.2552000  3
   3380   3383   3386   3397     1  180.0000771  2.0083200  2
   3380   3383   3386   3397     1  0.0000000  1.2552000  3
   3383   3386   3387   3390     1  180.0000771  2.0083200  2
   3383   3386   3387   3390     1  0.0000000  1.2552000  3
   3383   3386   3397   3400     1  180.0000771  2.0083200  2
   3383   3386   3397   3400     1  0.0000000  1.2552000  3
   3383   3380   3377   3407     1  0.0000000  0.6508444  3
   3386   3387   3390   3393     1  0.0000000  0.6508444  3
   3386   3397   3400   3403     1  0.0000000  0.6508444  3
   3387   3390   3393   3394     1  180.0000771  0.0000000  2
   3387   3390   3393   3395     1  180.0000771  0.0000000  2
   3387   3386   3397   3400     1  180.0000771  2.0083200  2
   3387   3386   3397   3400     1  0.0000000  1.2552000  3
   3390   3387   3386   3397     1  180.0000771  2.0083200  2
   3390   3387   3386   3397     1  0.0000000  1.2552000  3
   3397   3400   3403   3404     1  180.0000771  0.0000000  2
   3397   3400   3403   3405     1  180.0000771  0.0000000  2
   3408   3411   3414   3417     1  0.0000000  0.6508444  3
   3411   3414   3417   3418     1  180.0000771  2.0083200  2
   3411   3414   3417   3418     1  0.0000000  1.2552000  3
   3411   3414   3417   3428     1  180.0000771  2.0083200  2
   3411   3414   3417   3428     1  0.0000000  1.2552000  3
   3414   3411   3408   3438     1  0.0000000  0.6508444  3
   3414   3417   3418   3421     1  180.0000771  2.0083200  2
   3414   3417   3418   3421     1  0.0000000  1.2552000  3
   3414   3417   3428   3431     1  180.0000771  2.0083200  2
   3414   3417   3428   3431     1  0.0000000  1.2552000  3
   3417   3418   3421   3424     1  0.0000000  0.6508444  3
   3417   3428   3431   3434     1  0.0000000  0.6508444  3
   3418   3417   3428   3431     1  180.0000771  2.0083200  2
   3418   3417   3428   3431     1  0.0000000  1.2552000  3
   3418   3421   3424   3425     1  180.0000771  0.0000000  2
   3418   3421   3424   3426     1  180.0000771  0.0000000  2
   3421   3418   3417   3428     1  180.0000771  2.0083200  2
   3421   3418   3417   3428     1  0.0000000  1.2552000  3
   3428   3431   3434   3435     1  180.0000771  0.0000000  2
   3428   3431   3434   3436     1  180.0000771  0.0000000  2
   3439   3442   3445   3448     1  0.0000000  0.6508444  3
   3442   3445   3448   3449     1  180.0000771  2.0083200  2
   3442   3445   3448   3449     1  0.0000000  1.2552000  3
   3442   3445   3448   3459     1  180.0000771  2.0083200  2
   3442   3445   3448   3459     1  0.0000000  1.2552000  3
   3445   3448   3449   3452     1  180.0000771  2.0083200  2
   3445   3448   3449   3452     1  0.0000000  1.2552000  3
   3445   3448   3459   3462     1  180.0000771  2.0083200  2
   3445   3448   3459   3462     1  0.0000000  1.2552000  3
   3445   3442   3439   3469     1  0.0000000  0.6508444  3
   3448   3449   3452   3455     1  0.0000000  0.6508444  3
   3448   3459   3462   3465     1  0.0000000  0.6508444  3
   3449   3452   3455   3456     1  180.0000771  0.0000000  2
   3449   3452   3455   3457     1  180.0000771  0.0000000  2
   3449   3448   3459   3462     1  180.0000771  2.0083200  2
   3449   3448   3459   3462     1  0.0000000  1.2552000  3
   3452   3449   3448   3459     1  180.0000771  2.0083200  2
   3452   3449   3448   3459     1  0.0000000  1.2552000  3
   3459   3462   3465   3466     1  180.0000771  0.0000000  2
   3459   3462   3465   3467     1  180.0000771  0.0000000  2
   3470   3473   3476   3479     1  0.0000000  0.6508444  3
   3473   3476   3479   3480     1  180.0000771  2.0083200  2
   3473   3476   3479   3480     1  0.0000000  1.2552000  3
   3473   3476   3479   3490     1  180.0000771  2.0083200  2
   3473   3476   3479   3490     1  0.0000000  1.2552000  3
   3476   3473   3470   3500     1  0.0000000  0.6508444  3
   3476   3479   3480   3483     1  180.0000771  2.0083200  2
   3476   3479   3480   3483     1  0.0000000  1.2552000  3
   3476   3479   3490   3493     1  180.0000771  2.0083200  2
   3476   3479   3490   3493     1  0.0000000  1.2552000  3
   3479   3480   3483   3486     1  0.0000000  0.6508444  3
   3479   3490   3493   3496     1  0.0000000  0.6508444  3
   3480   3479   3490   3493     1  180.0000771  2.0083200  2
   3480   3479   3490   3493     1  0.0000000  1.2552000  3
   3480   3483   3486   3487     1  180.0000771  0.0000000  2
   3480   3483   3486   3488     1  180.0000771  0.0000000  2
   3483   3480   3479   3490     1  180.0000771  2.0083200  2
   3483   3480   3479   3490     1  0.0000000  1.2552000  3
   3490   3493   3496   3497     1  180.0000771  0.0000000  2
   3490   3493   3496   3498     1  180.0000771  0.0000000  2
   3501   3504   3507   3510     1  0.0000000  0.6508444  3
   3504   3507   3510   3511     1  180.0000771  2.0083200  2
   3504   3507   3510   3511     1  0.0000000  1.2552000  3
   3504   3507   3510   3521     1  180.0000771  2.0083200  2
   3504   3507   3510   3521     1  0.0000000  1.2552000  3
   3507   3510   3511   3514     1  180.0000771  2.0083200  2
   3507   3510   3511   3514     1  0.0000000  1.2552000  3
   3507   3510   3521   3524     1  180.0000771  2.0083200  2
   3507   3510   3521   3524     1  0.0000000  1.2552000  3
   3507   3504   3501   3531     1  0.0000000  0.6508444  3
   3510   3511   3514   3517     1  0.0000000  0.6508444  3
   3510   3521   3524   3527     1  0.0000000  0.6508444  3
   3511   3514   3517   3518     1  180.0000771  0.0000000  2
   3511   3514   3517   3519     1  180.0000771  0.0000000  2
   3511   3510   3521   3524     1  180.0000771  2.0083200  2
   3511   3510   3521   3524     1  0.0000000  1.2552000  3
   3514   3511   3510   3521     1  180.0000771  2.0083200  2
   3514   3511   3510   3521     1  0.0000000  1.2552000  3
   3521   3524   3527   3528     1  180.0000771  0.0000000  2
   3521   3524   3527   3529     1  180.0000771  0.0000000  2
   3532   3535   3538   3541     1  0.0000000  0.6508444  3
   3535   3538   3541   3542     1  180.0000771  2.0083200  2
   3535   3538   3541   3542     1  0.0000000  1.2552000  3
   3535   3538   3541   3552     1  180.0000771  2.0083200  2
   3535   3538   3541   3552     1  0.0000000  1.2552000  3
   3538   3535   3532   3562     1  0.0000000  0.6508444  3
   3538   3541   3542   3545     1  180.0000771  2.0083200  2
   3538   3541   3542   3545     1  0.0000000  1.2552000  3
   3538   3541   3552   3555     1  180.0000771  2.0083200  2
   3538   3541   3552   3555     1  0.0000000  1.2552000  3
   3541   3542   3545   3548     1  0.0000000  0.6508444  3
   3541   3552   3555   3558     1  0.0000000  0.6508444  3
   3542   3541   3552   3555     1  180.0000771  2.0083200  2
   3542   3541   3552   3555     1  0.0000000  1.2552000  3
   3542   3545   3548   3549     1  180.0000771  0.0000000  2
   3542   3545   3548   3550     1  180.0000771  0.0000000  2
   3545   3542   3541   3552     1  180.0000771  2.0083200  2
   3545   3542   3541   3552     1  0.0000000  1.2552000  3
   3552   3555   3558   3559     1  180.0000771  0.0000000  2
   3552   3555   3558   3560     1  180.0000771  0.0000000  2
   3563   3566   3569   3572     1  0.0000000  0.6508444  3
   3566   3569   3572   3573     1  180.0000771  2.0083200  2
   3566   3569   3572   3573     1  0.0000000  1.2552000  3
   3566   3569   3572   3583     1  180.0000771  2.0083200  2
   3566   3569   3572   3583     1  0.0000000  1.2552000  3
   3569   3572   3573   3576     1  180.0000771  2.0083200  2
   3569   3572   3573   3576     1  0.0000000  1.2552000  3
   3569   3572   3583   3586     1  180.0000771  2.0083200  2
   3569   3572   3583   3586     1  0.0000000  1.2552000  3
   3569   3566   3563   3593     1  0.0000000  0.6508444  3
   3572   3573   3576   3579     1  0.0000000  0.6508444  3
   3572   3583   3586   3589     1  0.0000000  0.6508444  3
   3573   3576   3579   3580     1  180.0000771  0.0000000  2
   3573   3576   3579   3581     1  180.0000771  0.0000000  2
   3573   3572   3583   3586     1  180.0000771  2.0083200  2
   3573   3572   3583   3586     1  0.0000000  1.2552000  3
   3576   3573   3572   3583     1  180.0000771  2.0083200  2
   3576   3573   3572   3583     1  0.0000000  1.2552000  3
   3583   3586   3589   3590     1  180.0000771  0.0000000  2
   3583   3586   3589   3591     1  180.0000771  0.0000000  2
   3594   3597   3600   3603     1  0.0000000  0.6508444  3
   3597   3600   3603   3604     1  180.0000771  2.0083200  2
   3597   3600   3603   3604     1  0.0000000  1.2552000  3
   3597   3600   3603   3614     1  180.0000771  2.0083200  2
   3597   3600   3603   3614     1  0.0000000  1.2552000  3
   3600   3597   3594   3624     1  0.0000000  0.6508444  3
   3600   3603   3604   3607     1  180.0000771  2.0083200  2
   3600   3603   3604   3607     1  0.0000000  1.2552000  3
   3600   3603   3614   3617     1  180.0000771  2.0083200  2
   3600   3603   3614   3617     1  0.0000000  1.2552000  3
   3603   3604   3607   3610     1  0.0000000  0.6508444  3
   3603   3614   3617   3620     1  0.0000000  0.6508444  3
   3604   3603   3614   3617     1  180.0000771  2.0083200  2
   3604   3603   3614   3617     1  0.0000000  1.2552000  3
   3604   3607   3610   3611     1  180.0000771  0.0000000  2
   3604   3607   3610   3612     1  180.0000771  0.0000000  2
   3607   3604   3603   3614     1  180.0000771  2.0083200  2
   3607   3604   3603   3614     1  0.0000000  1.2552000  3
   3614   3617   3620   3621     1  180.0000771  0.0000000  2
   3614   3617   3620   3622     1  180.0000771  0.0000000  2
   3625   3628   3631   3634     1  0.0000000  0.6508444  3
   3628   3631   3634   3635     1  180.0000771  2.0083200  2
   3628   3631   3634   3635     1  0.0000000  1.2552000  3
   3628   3631   3634   3645     1  180.0000771  2.0083200  2
   3628   3631   3634   3645     1  0.0000000  1.2552000  3
   3631   3634   3635   3638     1  180.0000771  2.0083200  2
   3631   3634   3635   3638     1  0.0000000  1.2552000  3
   3631   3634   3645   3648     1  180.0000771  2.0083200  2
   3631   3634   3645   3648     1  0.0000000  1.2552000  3
   3631   3628   3625   3655     1  0.0000000  0.6508444  3
   3634   3635   3638   3641     1  0.0000000  0.6508444  3
   3634   3645   3648   3651     1  0.0000000  0.6508444  3
   3635   3638   3641   3642     1  180.0000771  0.0000000  2
   3635   3638   3641   3643     1  180.0000771  0.0000000  2
   3635   3634   3645   3648     1  180.0000771  2.0083200  2
   3635   3634   3645   3648     1  0.0000000  1.2552000  3
   3638   3635   3634   3645     1  180.0000771  2.0083200  2
   3638   3635   3634   3645     1  0.0000000  1.2552000  3
   3645   3648   3651   3652     1  180.0000771  0.0000000  2
   3645   3648   3651   3653     1  180.0000771  0.0000000  2
   3656   3659   3662   3665     1  0.0000000  0.6508444  3
   3659   3662   3665   3666     1  180.0000771  2.0083200  2
   3659   3662   3665   3666     1  0.0000000  1.2552000  3
   3659   3662   3665   3676     1  180.0000771  2.0083200  2
   3659   3662   3665   3676     1  0.0000000  1.2552000  3
   3662   3659   3656   3686     1  0.0000000  0.6508444  3
   3662   3665   3666   3669     1  180.0000771  2.0083200  2
   3662   3665   3666   3669     1  0.0000000  1.2552000  3
   3662   3665   3676   3679     1  180.0000771  2.0083200  2
   3662   3665   3676   3679     1  0.0000000  1.2552000  3
   3665   3666   3669   3672     1  0.0000000  0.6508444  3
   3665   3676   3679   3682     1  0.0000000  0.6508444  3
   3666   3665   3676   3679     1  180.0000771  2.0083200  2
   3666   3665   3676   3679     1  0.0000000  1.2552000  3
   3666   3669   3672   3673     1  180.0000771  0.0000000  2
   3666   3669   3672   3674     1  180.0000771  0.0000000  2
   3669   3666   3665   3676     1  180.0000771  2.0083200  2
   3669   3666   3665   3676     1  0.0000000  1.2552000  3
   3676   3679   3682   3683     1  180.0000771  0.0000000  2
   3676   3679   3682   3684     1  180.0000771  0.0000000  2
   3687   3690   3693   3696     1  0.0000000  0.6508444  3
   3690   3693   3696   3697     1  180.0000771  2.0083200  2
   3690   3693   3696   3697     1  0.0000000  1.2552000  3
   3690   3693   3696   3707     1  180.0000771  2.0083200  2
   3690   3693   3696   3707     1  0.0000000  1.2552000  3
   3693   3696   3697   3700     1  180.0000771  2.0083200  2
   3693   3696   3697   3700     1  0.0000000  1.2552000  3
   3693   3696   3707   3710     1  180.0000771  2.0083200  2
   3693   3696   3707   3710     1  0.0000000  1.2552000  3
   3693   3690   3687   3717     1  0.0000000  0.6508444  3
   3696   3697   3700   3703     1  0.0000000  0.6508444  3
   3696   3707   3710   3713     1  0.0000000  0.6508444  3
   3697   3700   3703   3704     1  180.0000771  0.0000000  2
   3697   3700   3703   3705     1  180.0000771  0.0000000  2
   3697   3696   3707   3710     1  180.0000771  2.0083200  2
   3697   3696   3707   3710     1  0.0000000  1.2552000  3
   3700   3697   3696   3707     1  180.0000771  2.0083200  2
   3700   3697   3696   3707     1  0.0000000  1.2552000  3
   3707   3710   3713   3714     1  180.0000771  0.0000000  2
   3707   3710   3713   3715     1  180.0000771  0.0000000  2
   3718   3721   3724   3727     1  0.0000000  0.6508444  3
   3721   3724   3727   3728     1  180.0000771  2.0083200  2
   3721   3724   3727   3728     1  0.0000000  1.2552000  3
   3721   3724   3727   3738     1  180.0000771  2.0083200  2
   3721   3724   3727   3738     1  0.0000000  1.2552000  3
   3724   3721   3718   3748     1  0.0000000  0.6508444  3
   3724   3727   3728   3731     1  180.0000771  2.0083200  2
   3724   3727   3728   3731     1  0.0000000  1.2552000  3
   3724   3727   3738   3741     1  180.0000771  2.0083200  2
   3724   3727   3738   3741     1  0.0000000  1.2552000  3
   3727   3728   3731   3734     1  0.0000000  0.6508444  3
   3727   3738   3741   3744     1  0.0000000  0.6508444  3
   3728   3727   3738   3741     1  180.0000771  2.0083200  2
   3728   3727   3738   3741     1  0.0000000  1.2552000  3
   3728   3731   3734   3735     1  180.0000771  0.0000000  2
   3728   3731   3734   3736     1  180.0000771  0.0000000  2
   3731   3728   3727   3738     1  180.0000771  2.0083200  2
   3731   3728   3727   3738     1  0.0000000  1.2552000  3
   3738   3741   3744   3745     1  180.0000771  0.0000000  2
   3738   3741   3744   3746     1  180.0000771  0.0000000  2
   3749   3752   3755   3758     1  0.0000000  0.6508444  3
   3752   3755   3758   3759     1  180.0000771  2.0083200  2
   3752   3755   3758   3759     1  0.0000000  1.2552000  3
   3752   3755   3758   3769     1  180.0000771  2.0083200  2
   3752   3755   3758   3769     1  0.0000000  1.2552000  3
   3755   3758   3759   3762     1  180.0000771  2.0083200  2
   3755   3758   3759   3762     1  0.0000000  1.2552000  3
   3755   3758   3769   3772     1  180.0000771  2.0083200  2
   3755   3758   3769   3772     1  0.0000000  1.2552000  3
   3755   3752   3749   3779     1  0.0000000  0.6508444  3
   3758   3759   3762   3765     1  0.0000000  0.6508444  3
   3758   3769   3772   3775     1  0.0000000  0.6508444  3
   3759   3762   3765   3766     1  180.0000771  0.0000000  2
   3759   3762   3765   3767     1  180.0000771  0.0000000  2
   3759   3758   3769   3772     1  180.0000771  2.0083200  2
   3759   3758   3769   3772     1  0.0000000  1.2552000  3
   3762   3759   3758   3769     1  180.0000771  2.0083200  2
   3762   3759   3758   3769     1  0.0000000  1.2552000  3
   3769   3772   3775   3776     1  180.0000771  0.0000000  2
   3769   3772   3775   3777     1  180.0000771  0.0000000  2
   3780   3783   3786   3789     1  0.0000000  0.6508444  3
   3783   3786   3789   3790     1  180.0000771  2.0083200  2
   3783   3786   3789   3790     1  0.0000000  1.2552000  3
   3783   3786   3789   3800     1  180.0000771  2.0083200  2
   3783   3786   3789   3800     1  0.0000000  1.2552000  3
   3786   3783   3780   3810     1  0.0000000  0.6508444  3
   3786   3789   3790   3793     1  180.0000771  2.0083200  2
   3786   3789   3790   3793     1  0.0000000  1.2552000  3
   3786   3789   3800   3803     1  180.0000771  2.0083200  2
   3786   3789   3800   3803     1  0.0000000  1.2552000  3
   3789   3790   3793   3796     1  0.0000000  0.6508444  3
   3789   3800   3803   3806     1  0.0000000  0.6508444  3
   3790   3789   3800   3803     1  180.0000771  2.0083200  2
   3790   3789   3800   3803     1  0.0000000  1.2552000  3
   3790   3793   3796   3797     1  180.0000771  0.0000000  2
   3790   3793   3796   3798     1  180.0000771  0.0000000  2
   3793   3790   3789   3800     1  180.0000771  2.0083200  2
   3793   3790   3789   3800     1  0.0000000  1.2552000  3
   3800   3803   3806   3807     1  180.0000771  0.0000000  2
   3800   3803   3806   3808     1  180.0000771  0.0000000  2
   3811   3814   3817   3820     1  0.0000000  0.6508444  3
   3814   3817   3820   3821     1  180.0000771  2.0083200  2
   3814   3817   3820   3821     1  0.0000000  1.2552000  3
   3814   3817   3820   3831     1  180.0000771  2.0083200  2
   3814   3817   3820   3831     1  0.0000000  1.2552000  3
   3817   3820   3821   3824     1  180.0000771  2.0083200  2
   3817   3820   3821   3824     1  0.0000000  1.2552000  3
   3817   3820   3831   3834     1  180.0000771  2.0083200  2
   3817   3820   3831   3834     1  0.0000000  1.2552000  3
   3817   3814   3811   3841     1  0.0000000  0.6508444  3
   3820   3821   3824   3827     1  0.0000000  0.6508444  3
   3820   3831   3834   3837     1  0.0000000  0.6508444  3
   3821   3824   3827   3828     1  180.0000771  0.0000000  2
   3821   3824   3827   3829     1  180.0000771  0.0000000  2
   3821   3820   3831   3834     1  180.0000771  2.0083200  2
   3821   3820   3831   3834     1  0.0000000  1.2552000  3
   3824   3821   3820   3831     1  180.0000771  2.0083200  2
   3824   3821   3820   3831     1  0.0000000  1.2552000  3
   3831   3834   3837   3838     1  180.0000771  0.0000000  2
   3831   3834   3837   3839     1  180.0000771  0.0000000  2
   3842   3845   3848   3851     1  0.0000000  0.6508444  3
   3845   3848   3851   3852     1  180.0000771  2.0083200  2
   3845   3848   3851   3852     1  0.0000000  1.2552000  3
   3845   3848   3851   3862     1  180.0000771  2.0083200  2
   3845   3848   3851   3862     1  0.0000000  1.2552000  3
   3848   3845   3842   3872     1  0.0000000  0.6508444  3
   3848   3851   3852   3855     1  180.0000771  2.0083200  2
   3848   3851   3852   3855     1  0.0000000  1.2552000  3
   3848   3851   3862   3865     1  180.0000771  2.0083200  2
   3848   3851   3862   3865     1  0.0000000  1.2552000  3
   3851   3852   3855   3858     1  0.0000000  0.6508444  3
   3851   3862   3865   3868     1  0.0000000  0.6508444  3
   3852   3851   3862   3865     1  180.0000771  2.0083200  2
   3852   3851   3862   3865     1  0.0000000  1.2552000  3
   3852   3855   3858   3859     1  180.0000771  0.0000000  2
   3852   3855   3858   3860     1  180.0000771  0.0000000  2
   3855   3852   3851   3862     1  180.0000771  2.0083200  2
   3855   3852   3851   3862     1  0.0000000  1.2552000  3
   3862   3865   3868   3869     1  180.0000771  0.0000000  2
   3862   3865   3868   3870     1  180.0000771  0.0000000  2
   3873   3876   3879   3882     1  0.0000000  0.6508444  3
   3876   3879   3882   3883     1  180.0000771  2.0083200  2
   3876   3879   3882   3883     1  0.0000000  1.2552000  3
   3876   3879   3882   3893     1  180.0000771  2.0083200  2
   3876   3879   3882   3893     1  0.0000000  1.2552000  3
   3879   3882   3883   3886     1  180.0000771  2.0083200  2
   3879   3882   3883   3886     1  0.0000000  1.2552000  3
   3879   3882   3893   3896     1  180.0000771  2.0083200  2
   3879   3882   3893   3896     1  0.0000000  1.2552000  3
   3879   3876   3873   3903     1  0.0000000  0.6508444  3
   3882   3883   3886   3889     1  0.0000000  0.6508444  3
   3882   3893   3896   3899     1  0.0000000  0.6508444  3
   3883   3886   3889   3890     1  180.0000771  0.0000000  2
   3883   3886   3889   3891     1  180.0000771  0.0000000  2
   3883   3882   3893   3896     1  180.0000771  2.0083200  2
   3883   3882   3893   3896     1  0.0000000  1.2552000  3
   3886   3883   3882   3893     1  180.0000771  2.0083200  2
   3886   3883   3882   3893     1  0.0000000  1.2552000  3
   3893   3896   3899   3900     1  180.0000771  0.0000000  2
   3893   3896   3899   3901     1  180.0000771  0.0000000  2
   3904   3907   3910   3913     1  0.0000000  0.6508444  3
   3907   3910   3913   3914     1  180.0000771  2.0083200  2
   3907   3910   3913   3914     1  0.0000000  1.2552000  3
   3907   3910   3913   3924     1  180.0000771  2.0083200  2
   3907   3910   3913   3924     1  0.0000000  1.2552000  3
   3910   3907   3904   3934     1  0.0000000  0.6508444  3
   3910   3913   3914   3917     1  180.0000771  2.0083200  2
   3910   3913   3914   3917     1  0.0000000  1.2552000  3
   3910   3913   3924   3927     1  180.0000771  2.0083200  2
   3910   3913   3924   3927     1  0.0000000  1.2552000  3
   3913   3914   3917   3920     1  0.0000000  0.6508444  3
   3913   3924   3927   3930     1  0.0000000  0.6508444  3
   3914   3913   3924   3927     1  180.0000771  2.0083200  2
   3914   3913   3924   3927     1  0.0000000  1.2552000  3
   3914   3917   3920   3921     1  180.0000771  0.0000000  2
   3914   3917   3920   3922     1  180.0000771  0.0000000  2
   3917   3914   3913   3924     1  180.0000771  2.0083200  2
   3917   3914   3913   3924     1  0.0000000  1.2552000  3
   3924   3927   3930   3931     1  180.0000771  0.0000000  2
   3924   3927   3930   3932     1  180.0000771  0.0000000  2
   3935   3938   3941   3944     1  0.0000000  0.6508444  3
   3938   3941   3944   3945     1  180.0000771  2.0083200  2
   3938   3941   3944   3945     1  0.0000000  1.2552000  3
   3938   3941   3944   3955     1  180.0000771  2.0083200  2
   3938   3941   3944   3955     1  0.0000000  1.2552000  3
   3941   3944   3945   3948     1  180.0000771  2.0083200  2
   3941   3944   3945   3948     1  0.0000000  1.2552000  3
   3941   3944   3955   3958     1  180.0000771  2.0083200  2
   3941   3944   3955   3958     1  0.0000000  1.2552000  3
   3941   3938   3935   3965     1  0.0000000  0.6508444  3
   3944   3945   3948   3951     1  0.0000000  0.6508444  3
   3944   3955   3958   3961     1  0.0000000  0.6508444  3
   3945   3948   3951   3952     1  180.0000771  0.0000000  2
   3945   3948   3951   3953     1  180.0000771  0.0000000  2
   3945   3944   3955   3958     1  180.0000771  2.0083200  2
   3945   3944   3955   3958     1  0.0000000  1.2552000  3
   3948   3945   3944   3955     1  180.0000771  2.0083200  2
   3948   3945   3944   3955     1  0.0000000  1.2552000  3
   3955   3958   3961   3962     1  180.0000771  0.0000000  2
   3955   3958   3961   3963     1  180.0000771  0.0000000  2
   3966   3969   3972   3975     1  0.0000000  0.6508444  3
   3969   3972   3975   3976     1  180.0000771  2.0083200  2
   3969   3972   3975   3976     1  0.0000000  1.2552000  3
   3969   3972   3975   3986     1  180.0000771  2.0083200  2
   3969   3972   3975   3986     1  0.0000000  1.2552000  3
   3972   3969   3966   3996     1  0.0000000  0.6508444  3
   3972   3975   3976   3979     1  180.0000771  2.0083200  2
   3972   3975   3976   3979     1  0.0000000  1.2552000  3
   3972   3975   3986   3989     1  180.0000771  2.0083200  2
   3972   3975   3986   3989     1  0.0000000  1.2552000  3
   3975   3976   3979   3982     1  0.0000000  0.6508444  3
   3975   3986   3989   3992     1  0.0000000  0.6508444  3
   3976   3975   3986   3989     1  180.0000771  2.0083200  2
   3976   3975   3986   3989     1  0.0000000  1.2552000  3
   3976   3979   3982   3983     1  180.0000771  0.0000000  2
   3976   3979   3982   3984     1  180.0000771  0.0000000  2
   3979   3976   3975   3986     1  180.0000771  2.0083200  2
   3979   3976   3975   3986     1  0.0000000  1.2552000  3
   3986   3989   3992   3993     1  180.0000771  0.0000000  2
   3986   3989   3992   3994     1  180.0000771  0.0000000  2
   3997   4000   4003   4006     1  0.0000000  0.6508444  3
   4000   4003   4006   4007     1  180.0000771  2.0083200  2
   4000   4003   4006   4007     1  0.0000000  1.2552000  3
   4000   4003   4006   4017     1  180.0000771  2.0083200  2
   4000   4003   4006   4017     1  0.0000000  1.2552000  3
   4003   4006   4007   4010     1  180.0000771  2.0083200  2
   4003   4006   4007   4010     1  0.0000000  1.2552000  3
   4003   4006   4017   4020     1  180.0000771  2.0083200  2
   4003   4006   4017   4020     1  0.0000000  1.2552000  3
   4003   4000   3997   4027     1  0.0000000  0.6508444  3
   4006   4007   4010   4013     1  0.0000000  0.6508444  3
   4006   4017   4020   4023     1  0.0000000  0.6508444  3
   4007   4010   4013   4014     1  180.0000771  0.0000000  2
   4007   4010   4013   4015     1  180.0000771  0.0000000  2
   4007   4006   4017   4020     1  180.0000771  2.0083200  2
   4007   4006   4017   4020     1  0.0000000  1.2552000  3
   4010   4007   4006   4017     1  180.0000771  2.0083200  2
   4010   4007   4006   4017     1  0.0000000  1.2552000  3
   4017   4020   4023   4024     1  180.0000771  0.0000000  2
   4017   4020   4023   4025     1  180.0000771  0.0000000  2
   4028   4031   4034   4037     1  0.0000000  0.6508444  3
   4031   4034   4037   4038     1  180.0000771  2.0083200  2
   4031   4034   4037   4038     1  0.0000000  1.2552000  3
   4031   4034   4037   4048     1  180.0000771  2.0083200  2
   4031   4034   4037   4048     1  0.0000000  1.2552000  3
   4034   4031   4028   4058     1  0.0000000  0.6508444  3
   4034   4037   4038   4041     1  180.0000771  2.0083200  2
   4034   4037   4038   4041     1  0.0000000  1.2552000  3
   4034   4037   4048   4051     1  180.0000771  2.0083200  2
   4034   4037   4048   4051     1  0.0000000  1.2552000  3
   4037   4038   4041   4044     1  0.0000000  0.6508444  3
   4037   4048   4051   4054     1  0.0000000  0.6508444  3
   4038   4037   4048   4051     1  180.0000771  2.0083200  2
   4038   4037   4048   4051     1  0.0000000  1.2552000  3
   4038   4041   4044   4045     1  180.0000771  0.0000000  2
   4038   4041   4044   4046     1  180.0000771  0.0000000  2
   4041   4038   4037   4048     1  180.0000771  2.0083200  2
   4041   4038   4037   4048     1  0.0000000  1.2552000  3
   4048   4051   4054   4055     1  180.0000771  0.0000000  2
   4048   4051   4054   4056     1  180.0000771  0.0000000  2
   4059   4062   4065   4068     1  0.0000000  0.6508444  3
   4062   4065   4068   4069     1  180.0000771  2.0083200  2
   4062   4065   4068   4069     1  0.0000000  1.2552000  3
   4062   4065   4068   4079     1  180.0000771  2.0083200  2
   4062   4065   4068   4079     1  0.0000000  1.2552000  3
   4065   4068   4069   4072     1  180.0000771  2.0083200  2
   4065   4068   4069   4072     1  0.0000000  1.2552000  3
   4065   4068   4079   4082     1  180.0000771  2.0083200  2
   4065   4068   4079   4082     1  0.0000000  1.2552000  3
   4065   4062   4059   4089     1  0.0000000  0.6508444  3
   4068   4069   4072   4075     1  0.0000000  0.6508444  3
   4068   4079   4082   4085     1  0.0000000  0.6508444  3
   4069   4072   4075   4076     1  180.0000771  0.0000000  2
   4069   4072   4075   4077     1  180.0000771  0.0000000  2
   4069   4068   4079   4082     1  180.0000771  2.0083200  2
   4069   4068   4079   4082     1  0.0000000  1.2552000  3
   4072   4069   4068   4079     1  180.0000771  2.0083200  2
   4072   4069   4068   4079     1  0.0000000  1.2552000  3
   4079   4082   4085   4086     1  180.0000771  0.0000000  2
   4079   4082   4085   4087     1  180.0000771  0.0000000  2
   4090   4093   4096   4099     1  0.0000000  0.6508444  3
   4093   4096   4099   4100     1  180.0000771  2.0083200  2
   4093   4096   4099   4100     1  0.0000000  1.2552000  3
   4093   4096   4099   4110     1  180.0000771  2.0083200  2
   4093   4096   4099   4110     1  0.0000000  1.2552000  3
   4096   4093   4090   4120     1  0.0000000  0.6508444  3
   4096   4099   4100   4103     1  180.0000771  2.0083200  2
   4096   4099   4100   4103     1  0.0000000  1.2552000  3
   4096   4099   4110   4113     1  180.0000771  2.0083200  2
   4096   4099   4110   4113     1  0.0000000  1.2552000  3
   4099   4100   4103   4106     1  0.0000000  0.6508444  3
   4099   4110   4113   4116     1  0.0000000  0.6508444  3
   4100   4099   4110   4113     1  180.0000771  2.0083200  2
   4100   4099   4110   4113     1  0.0000000  1.2552000  3
   4100   4103   4106   4107     1  180.0000771  0.0000000  2
   4100   4103   4106   4108     1  180.0000771  0.0000000  2
   4103   4100   4099   4110     1  180.0000771  2.0083200  2
   4103   4100   4099   4110     1  0.0000000  1.2552000  3
   4110   4113   4116   4117     1  180.0000771  0.0000000  2
   4110   4113   4116   4118     1  180.0000771  0.0000000  2
   4121   4124   4127   4130     1  0.0000000  0.6508444  3
   4124   4127   4130   4131     1  180.0000771  2.0083200  2
   4124   4127   4130   4131     1  0.0000000  1.2552000  3
   4124   4127   4130   4141     1  180.0000771  2.0083200  2
   4124   4127   4130   4141     1  0.0000000  1.2552000  3
   4127   4130   4131   4134     1  180.0000771  2.0083200  2
   4127   4130   4131   4134     1  0.0000000  1.2552000  3
   4127   4130   4141   4144     1  180.0000771  2.0083200  2
   4127   4130   4141   4144     1  0.0000000  1.2552000  3
   4127   4124   4121   4151     1  0.0000000  0.6508444  3
   4130   4131   4134   4137     1  0.0000000  0.6508444  3
   4130   4141   4144   4147     1  0.0000000  0.6508444  3
   4131   4134   4137   4138     1  180.0000771  0.0000000  2
   4131   4134   4137   4139     1  180.0000771  0.0000000  2
   4131   4130   4141   4144     1  180.0000771  2.0083200  2
   4131   4130   4141   4144     1  0.0000000  1.2552000  3
   4134   4131   4130   4141     1  180.0000771  2.0083200  2
   4134   4131   4130   4141     1  0.0000000  1.2552000  3
   4141   4144   4147   4148     1  180.0000771  0.0000000  2
   4141   4144   4147   4149     1  180.0000771  0.0000000  2
   4152   4155   4158   4161     1  0.0000000  0.6508444  3
   4155   4158   4161   4162     1  180.0000771  2.0083200  2
   4155   4158   4161   4162     1  0.0000000  1.2552000  3
   4155   4158   4161   4172     1  180.0000771  2.0083200  2
   4155   4158   4161   4172     1  0.0000000  1.2552000  3
   4158   4155   4152   4182     1  0.0000000  0.6508444  3
   4158   4161   4162   4165     1  180.0000771  2.0083200  2
   4158   4161   4162   4165     1  0.0000000  1.2552000  3
   4158   4161   4172   4175     1  180.0000771  2.0083200  2
   4158   4161   4172   4175     1  0.0000000  1.2552000  3
   4161   4162   4165   4168     1  0.0000000  0.6508444  3
   4161   4172   4175   4178     1  0.0000000  0.6508444  3
   4162   4161   4172   4175     1  180.0000771  2.0083200  2
   4162   4161   4172   4175     1  0.0000000  1.2552000  3
   4162   4165   4168   4169     1  180.0000771  0.0000000  2
   4162   4165   4168   4170     1  180.0000771  0.0000000  2
   4165   4162   4161   4172     1  180.0000771  2.0083200  2
   4165   4162   4161   4172     1  0.0000000  1.2552000  3
   4172   4175   4178   4179     1  180.0000771  0.0000000  2
   4172   4175   4178   4180     1  180.0000771  0.0000000  2
   4183   4186   4189   4192     1  0.0000000  0.6508444  3
   4186   4189   4192   4193     1  180.0000771  2.0083200  2
   4186   4189   4192   4193     1  0.0000000  1.2552000  3
   4186   4189   4192   4203     1  180.0000771  2.0083200  2
   4186   4189   4192   4203     1  0.0000000  1.2552000  3
   4189   4192   4193   4196     1  180.0000771  2.0083200  2
   4189   4192   4193   4196     1  0.0000000  1.2552000  3
   4189   4192   4203   4206     1  180.0000771  2.0083200  2
   4189   4192   4203   4206     1  0.0000000  1.2552000  3
   4189   4186   4183   4213     1  0.0000000  0.6508444  3
   4192   4193   4196   4199     1  0.0000000  0.6508444  3
   4192   4203   4206   4209     1  0.0000000  0.6508444  3
   4193   4196   4199   4200     1  180.0000771  0.0000000  2
   4193   4196   4199   4201     1  180.0000771  0.0000000  2
   4193   4192   4203   4206     1  180.0000771  2.0083200  2
   4193   4192   4203   4206     1  0.0000000  1.2552000  3
   4196   4193   4192   4203     1  180.0000771  2.0083200  2
   4196   4193   4192   4203     1  0.0000000  1.2552000  3
   4203   4206   4209   4210     1  180.0000771  0.0000000  2
   4203   4206   4209   4211     1  180.0000771  0.0000000  2
   4214   4217   4220   4223     1  0.0000000  0.6508444  3
   4217   4220   4223   4224     1  180.0000771  2.0083200  2
   4217   4220   4223   4224     1  0.0000000  1.2552000  3
   4217   4220   4223   4234     1  180.0000771  2.0083200  2
   4217   4220   4223   4234     1  0.0000000  1.2552000  3
   4220   4217   4214   4244     1  0.0000000  0.6508444  3
   4220   4223   4224   4227     1  180.0000771  2.0083200  2
   4220   4223   4224   4227     1  0.0000000  1.2552000  3
   4220   4223   4234   4237     1  180.0000771  2.0083200  2
   4220   4223   4234   4237     1  0.0000000  1.2552000  3
   4223   4224   4227   4230     1  0.0000000  0.6508444  3
   4223   4234   4237   4240     1  0.0000000  0.6508444  3
   4224   4223   4234   4237     1  180.0000771  2.0083200  2
   4224   4223   4234   4237     1  0.0000000  1.2552000  3
   4224   4227   4230   4231     1  180.0000771  0.0000000  2
   4224   4227   4230   4232     1  180.0000771  0.0000000  2
   4227   4224   4223   4234     1  180.0000771  2.0083200  2
   4227   4224   4223   4234     1  0.0000000  1.2552000  3
   4234   4237   4240   4241     1  180.0000771  0.0000000  2
   4234   4237   4240   4242     1  180.0000771  0.0000000  2
   4245   4248   4251   4254     1  0.0000000  0.6508444  3
   4248   4251   4254   4255     1  180.0000771  2.0083200  2
   4248   4251   4254   4255     1  0.0000000  1.2552000  3
   4248   4251   4254   4265     1  180.0000771  2.0083200  2
   4248   4251   4254   4265     1  0.0000000  1.2552000  3
   4251   4254   4255   4258     1  180.0000771  2.0083200  2
   4251   4254   4255   4258     1  0.0000000  1.2552000  3
   4251   4254   4265   4268     1  180.0000771  2.0083200  2
   4251   4254   4265   4268     1  0.0000000  1.2552000  3
   4251   4248   4245   4275     1  0.0000000  0.6508444  3
   4254   4255   4258   4261     1  0.0000000  0.6508444  3
   4254   4265   4268   4271     1  0.0000000  0.6508444  3
   4255   4258   4261   4262     1  180.0000771  0.0000000  2
   4255   4258   4261   4263     1  180.0000771  0.0000000  2
   4255   4254   4265   4268     1  180.0000771  2.0083200  2
   4255   4254   4265   4268     1  0.0000000  1.2552000  3
   4258   4255   4254   4265     1  180.0000771  2.0083200  2
   4258   4255   4254   4265     1  0.0000000  1.2552000  3
   4265   4268   4271   4272     1  180.0000771  0.0000000  2
   4265   4268   4271   4273     1  180.0000771  0.0000000  2
   4276   4279   4282   4285     1  0.0000000  0.6508444  3
   4279   4282   4285   4286     1  180.0000771  2.0083200  2
   4279   4282   4285   4286     1  0.0000000  1.2552000  3
   4279   4282   4285   4296     1  180.0000771  2.0083200  2
   4279   4282   4285   4296     1  0.0000000  1.2552000  3
   4282   4279   4276   4306     1  0.0000000  0.6508444  3
   4282   4285   4286   4289     1  180.0000771  2.0083200  2
   4282   4285   4286   4289     1  0.0000000  1.2552000  3
   4282   4285   4296   4299     1  180.0000771  2.0083200  2
   4282   4285   4296   4299     1  0.0000000  1.2552000  3
   4285   4286   4289   4292     1  0.0000000  0.6508444  3
   4285   4296   4299   4302     1  0.0000000  0.6508444  3
   4286   4285   4296   4299     1  180.0000771  2.0083200  2
   4286   4285   4296   4299     1  0.0000000  1.2552000  3
   4286   4289   4292   4293     1  180.0000771  0.0000000  2
   4286   4289   4292   4294     1  180.0000771  0.0000000  2
   4289   4286   4285   4296     1  180.0000771  2.0083200  2
   4289   4286   4285   4296     1  0.0000000  1.2552000  3
   4296   4299   4302   4303     1  180.0000771  0.0000000  2
   4296   4299   4302   4304     1  180.0000771  0.0000000  2
   4307   4310   4313   4316     1  0.0000000  0.6508444  3
   4310   4313   4316   4317     1  180.0000771  2.0083200  2
   4310   4313   4316   4317     1  0.0000000  1.2552000  3
   4310   4313   4316   4327     1  180.0000771  2.0083200  2
   4310   4313   4316   4327     1  0.0000000  1.2552000  3
   4313   4316   4317   4320     1  180.0000771  2.0083200  2
   4313   4316   4317   4320     1  0.0000000  1.2552000  3
   4313   4316   4327   4330     1  180.0000771  2.0083200  2
   4313   4316   4327   4330     1  0.0000000  1.2552000  3
   4313   4310   4307   4337     1  0.0000000  0.6508444  3
   4316   4317   4320   4323     1  0.0000000  0.6508444  3
   4316   4327   4330   4333     1  0.0000000  0.6508444  3
   4317   4320   4323   4324     1  180.0000771  0.0000000  2
   4317   4320   4323   4325     1  180.0000771  0.0000000  2
   4317   4316   4327   4330     1  180.0000771  2.0083200  2
   4317   4316   4327   4330     1  0.0000000  1.2552000  3
   4320   4317   4316   4327     1  180.0000771  2.0083200  2
   4320   4317   4316   4327     1  0.0000000  1.2552000  3
   4327   4330   4333   4334     1  180.0000771  0.0000000  2
   4327   4330   4333   4335     1  180.0000771  0.0000000  2
   4338   4341   4344   4347     1  0.0000000  0.6508444  3
   4341   4344   4347   4348     1  180.0000771  2.0083200  2
   4341   4344   4347   4348     1  0.0000000  1.2552000  3
   4341   4344   4347   4358     1  180.0000771  2.0083200  2
   4341   4344   4347   4358     1  0.0000000  1.2552000  3
   4344   4341   4338   4368     1  0.0000000  0.6508444  3
   4344   4347   4348   4351     1  180.0000771  2.0083200  2
   4344   4347   4348   4351     1  0.0000000  1.2552000  3
   4344   4347   4358   4361     1  180.0000771  2.0083200  2
   4344   4347   4358   4361     1  0.0000000  1.2552000  3
   4347   4348   4351   4354     1  0.0000000  0.6508444  3
   4347   4358   4361   4364     1  0.0000000  0.6508444  3
   4348   4347   4358   4361     1  180.0000771  2.0083200  2
   4348   4347   4358   4361     1  0.0000000  1.2552000  3
   4348   4351   4354   4355     1  180.0000771  0.0000000  2
   4348   4351   4354   4356     1  180.0000771  0.0000000  2
   4351   4348   4347   4358     1  180.0000771  2.0083200  2
   4351   4348   4347   4358     1  0.0000000  1.2552000  3
   4358   4361   4364   4365     1  180.0000771  0.0000000  2
   4358   4361   4364   4366     1  180.0000771  0.0000000  2
   4369   4372   4375   4378     1  0.0000000  0.6508444  3
   4372   4375   4378   4379     1  180.0000771  2.0083200  2
   4372   4375   4378   4379     1  0.0000000  1.2552000  3
   4372   4375   4378   4389     1  180.0000771  2.0083200  2
   4372   4375   4378   4389     1  0.0000000  1.2552000  3
   4375   4378   4379   4382     1  180.0000771  2.0083200  2
   4375   4378   4379   4382     1  0.0000000  1.2552000  3
   4375   4378   4389   4392     1  180.0000771  2.0083200  2
   4375   4378   4389   4392     1  0.0000000  1.2552000  3
   4375   4372   4369   4399     1  0.0000000  0.6508444  3
   4378   4379   4382   4385     1  0.0000000  0.6508444  3
   4378   4389   4392   4395     1  0.0000000  0.6508444  3
   4379   4382   4385   4386     1  180.0000771  0.0000000  2
   4379   4382   4385   4387     1  180.0000771  0.0000000  2
   4379   4378   4389   4392     1  180.0000771  2.0083200  2
   4379   4378   4389   4392     1  0.0000000  1.2552000  3
   4382   4379   4378   4389     1  180.0000771  2.0083200  2
   4382   4379   4378   4389     1  0.0000000  1.2552000  3
   4389   4392   4395   4396     1  180.0000771  0.0000000  2
   4389   4392   4395   4397     1  180.0000771  0.0000000  2
   4400   4403   4406   4409     1  0.0000000  0.6508444  3
   4403   4406   4409   4410     1  180.0000771  2.0083200  2
   4403   4406   4409   4410     1  0.0000000  1.2552000  3
   4403   4406   4409   4420     1  180.0000771  2.0083200  2
   4403   4406   4409   4420     1  0.0000000  1.2552000  3
   4406   4403   4400   4430     1  0.0000000  0.6508444  3
   4406   4409   4410   4413     1  180.0000771  2.0083200  2
   4406   4409   4410   4413     1  0.0000000  1.2552000  3
   4406   4409   4420   4423     1  180.0000771  2.0083200  2
   4406   4409   4420   4423     1  0.0000000  1.2552000  3
   4409   4410   4413   4416     1  0.0000000  0.6508444  3
   4409   4420   4423   4426     1  0.0000000  0.6508444  3
   4410   4409   4420   4423     1  180.0000771  2.0083200  2
   4410   4409   4420   4423     1  0.0000000  1.2552000  3
   4410   4413   4416   4417     1  180.0000771  0.0000000  2
   4410   4413   4416   4418     1  180.0000771  0.0000000  2
   4413   4410   4409   4420     1  180.0000771  2.0083200  2
   4413   4410   4409   4420     1  0.0000000  1.2552000  3
   4420   4423   4426   4427     1  180.0000771  0.0000000  2
   4420   4423   4426   4428     1  180.0000771  0.0000000  2
   4431   4434   4437   4440     1  0.0000000  0.6508444  3
   4434   4437   4440   4441     1  180.0000771  2.0083200  2
   4434   4437   4440   4441     1  0.0000000  1.2552000  3
   4434   4437   4440   4451     1  180.0000771  2.0083200  2
   4434   4437   4440   4451     1  0.0000000  1.2552000  3
   4437   4440   4441   4444     1  180.0000771  2.0083200  2
   4437   4440   4441   4444     1  0.0000000  1.2552000  3
   4437   4440   4451   4454     1  180.0000771  2.0083200  2
   4437   4440   4451   4454     1  0.0000000  1.2552000  3
   4437   4434   4431   4461     1  0.0000000  0.6508444  3
   4440   4441   4444   4447     1  0.0000000  0.6508444  3
   4440   4451   4454   4457     1  0.0000000  0.6508444  3
   4441   4444   4447   4448     1  180.0000771  0.0000000  2
   4441   4444   4447   4449     1  180.0000771  0.0000000  2
   4441   4440   4451   4454     1  180.0000771  2.0083200  2
   4441   4440   4451   4454     1  0.0000000  1.2552000  3
   4444   4441   4440   4451     1  180.0000771  2.0083200  2
   4444   4441   4440   4451     1  0.0000000  1.2552000  3
   4451   4454   4457   4458     1  180.0000771  0.0000000  2
   4451   4454   4457   4459     1  180.0000771  0.0000000  2
   4462   4465   4468   4471     1  0.0000000  0.6508444  3
   4465   4468   4471   4472     1  180.0000771  2.0083200  2
   4465   4468   4471   4472     1  0.0000000  1.2552000  3
   4465   4468   4471   4482     1  180.0000771  2.0083200  2
   4465   4468   4471   4482     1  0.0000000  1.2552000  3
   4468   4465   4462   4492     1  0.0000000  0.6508444  3
   4468   4471   4472   4475     1  180.0000771  2.0083200  2
   4468   4471   4472   4475     1  0.0000000  1.2552000  3
   4468   4471   4482   4485     1  180.0000771  2.0083200  2
   4468   4471   4482   4485     1  0.0000000  1.2552000  3
   4471   4472   4475   4478     1  0.0000000  0.6508444  3
   4471   4482   4485   4488     1  0.0000000  0.6508444  3
   4472   4471   4482   4485     1  180.0000771  2.0083200  2
   4472   4471   4482   4485     1  0.0000000  1.2552000  3
   4472   4475   4478   4479     1  180.0000771  0.0000000  2
   4472   4475   4478   4480     1  180.0000771  0.0000000  2
   4475   4472   4471   4482     1  180.0000771  2.0083200  2
   4475   4472   4471   4482     1  0.0000000  1.2552000  3
   4482   4485   4488   4489     1  180.0000771  0.0000000  2
   4482   4485   4488   4490     1  180.0000771  0.0000000  2
   4493   4496   4499   4502     1  0.0000000  0.6508444  3
   4496   4499   4502   4503     1  180.0000771  2.0083200  2
   4496   4499   4502   4503     1  0.0000000  1.2552000  3
   4496   4499   4502   4513     1  180.0000771  2.0083200  2
   4496   4499   4502   4513     1  0.0000000  1.2552000  3
   4499   4502   4503   4506     1  180.0000771  2.0083200  2
   4499   4502   4503   4506     1  0.0000000  1.2552000  3
   4499   4502   4513   4516     1  180.0000771  2.0083200  2
   4499   4502   4513   4516     1  0.0000000  1.2552000  3
   4499   4496   4493   4523     1  0.0000000  0.6508444  3
   4502   4503   4506   4509     1  0.0000000  0.6508444  3
   4502   4513   4516   4519     1  0.0000000  0.6508444  3
   4503   4506   4509   4510     1  180.0000771  0.0000000  2
   4503   4506   4509   4511     1  180.0000771  0.0000000  2
   4503   4502   4513   4516     1  180.0000771  2.0083200  2
   4503   4502   4513   4516     1  0.0000000  1.2552000  3
   4506   4503   4502   4513     1  180.0000771  2.0083200  2
   4506   4503   4502   4513     1  0.0000000  1.2552000  3
   4513   4516   4519   4520     1  180.0000771  0.0000000  2
   4513   4516   4519   4521     1  180.0000771  0.0000000  2
   4524   4527   4530   4533     1  0.0000000  0.6508444  3
   4527   4530   4533   4534     1  180.0000771  2.0083200  2
   4527   4530   4533   4534     1  0.0000000  1.2552000  3
   4527   4530   4533   4544     1  180.0000771  2.0083200  2
   4527   4530   4533   4544     1  0.0000000  1.2552000  3
   4530   4527   4524   4554     1  0.0000000  0.6508444  3
   4530   4533   4534   4537     1  180.0000771  2.0083200  2
   4530   4533   4534   4537     1  0.0000000  1.2552000  3
   4530   4533   4544   4547     1  180.0000771  2.0083200  2
   4530   4533   4544   4547     1  0.0000000  1.2552000  3
   4533   4534   4537   4540     1  0.0000000  0.6508444  3
   4533   4544   4547   4550     1  0.0000000  0.6508444  3
   4534   4533   4544   4547     1  180.0000771  2.0083200  2
   4534   4533   4544   4547     1  0.0000000  1.2552000  3
   4534   4537   4540   4541     1  180.0000771  0.0000000  2
   4534   4537   4540   4542     1  180.0000771  0.0000000  2
   4537   4534   4533   4544     1  180.0000771  2.0083200  2
   4537   4534   4533   4544     1  0.0000000  1.2552000  3
   4544   4547   4550   4551     1  180.0000771  0.0000000  2
   4544   4547   4550   4552     1  180.0000771  0.0000000  2
   4555   4558   4561   4564     1  0.0000000  0.6508444  3
   4558   4561   4564   4565     1  180.0000771  2.0083200  2
   4558   4561   4564   4565     1  0.0000000  1.2552000  3
   4558   4561   4564   4575     1  180.0000771  2.0083200  2
   4558   4561   4564   4575     1  0.0000000  1.2552000  3
   4561   4564   4565   4568     1  180.0000771  2.0083200  2
   4561   4564   4565   4568     1  0.0000000  1.2552000  3
   4561   4564   4575   4578     1  180.0000771  2.0083200  2
   4561   4564   4575   4578     1  0.0000000  1.2552000  3
   4561   4558   4555   4585     1  0.0000000  0.6508444  3
   4564   4565   4568   4571     1  0.0000000  0.6508444  3
   4564   4575   4578   4581     1  0.0000000  0.6508444  3
   4565   4568   4571   4572     1  180.0000771  0.0000000  2
   4565   4568   4571   4573     1  180.0000771  0.0000000  2
   4565   4564   4575   4578     1  180.0000771  2.0083200  2
   4565   4564   4575   4578     1  0.0000000  1.2552000  3
   4568   4565   4564   4575     1  180.0000771  2.0083200  2
   4568   4565   4564   4575     1  0.0000000  1.2552000  3
   4575   4578   4581   4582     1  180.0000771  0.0000000  2
   4575   4578   4581   4583     1  180.0000771  0.0000000  2
   4586   4589   4592   4595     1  0.0000000  0.6508444  3
   4589   4592   4595   4596     1  180.0000771  2.0083200  2
   4589   4592   4595   4596     1  0.0000000  1.2552000  3
   4589   4592   4595   4606     1  180.0000771  2.0083200  2
   4589   4592   4595   4606     1  0.0000000  1.2552000  3
   4592   4589   4586   4616     1  0.0000000  0.6508444  3
   4592   4595   4596   4599     1  180.0000771  2.0083200  2
   4592   4595   4596   4599     1  0.0000000  1.2552000  3
   4592   4595   4606   4609     1  180.0000771  2.0083200  2
   4592   4595   4606   4609     1  0.0000000  1.2552000  3
   4595   4596   4599   4602     1  0.0000000  0.6508444  3
   4595   4606   4609   4612     1  0.0000000  0.6508444  3
   4596   4595   4606   4609     1  180.0000771  2.0083200  2
   4596   4595   4606   4609     1  0.0000000  1.2552000  3
   4596   4599   4602   4603     1  180.0000771  0.0000000  2
   4596   4599   4602   4604     1  180.0000771  0.0000000  2
   4599   4596   4595   4606     1  180.0000771  2.0083200  2
   4599   4596   4595   4606     1  0.0000000  1.2552000  3
   4606   4609   4612   4613     1  180.0000771  0.0000000  2
   4606   4609   4612   4614     1  180.0000771  0.0000000  2
   4617   4620   4623   4626     1  0.0000000  0.6508444  3
   4620   4623   4626   4627     1  180.0000771  2.0083200  2
   4620   4623   4626   4627     1  0.0000000  1.2552000  3
   4620   4623   4626   4637     1  180.0000771  2.0083200  2
   4620   4623   4626   4637     1  0.0000000  1.2552000  3
   4623   4626   4627   4630     1  180.0000771  2.0083200  2
   4623   4626   4627   4630     1  0.0000000  1.2552000  3
   4623   4626   4637   4640     1  180.0000771  2.0083200  2
   4623   4626   4637   4640     1  0.0000000  1.2552000  3
   4623   4620   4617   4647     1  0.0000000  0.6508444  3
   4626   4627   4630   4633     1  0.0000000  0.6508444  3
   4626   4637   4640   4643     1  0.0000000  0.6508444  3
   4627   4630   4633   4634     1  180.0000771  0.0000000  2
   4627   4630   4633   4635     1  180.0000771  0.0000000  2
   4627   4626   4637   4640     1  180.0000771  2.0083200  2
   4627   4626   4637   4640     1  0.0000000  1.2552000  3
   4630   4627   4626   4637     1  180.0000771  2.0083200  2
   4630   4627   4626   4637     1  0.0000000  1.2552000  3
   4637   4640   4643   4644     1  180.0000771  0.0000000  2
   4637   4640   4643   4645     1  180.0000771  0.0000000  2
   4648   4651   4654   4657     1  0.0000000  0.6508444  3
   4651   4654   4657   4658     1  180.0000771  2.0083200  2
   4651   4654   4657   4658     1  0.0000000  1.2552000  3
   4651   4654   4657   4668     1  180.0000771  2.0083200  2
   4651   4654   4657   4668     1  0.0000000  1.2552000  3
   4654   4651   4648   4678     1  0.0000000  0.6508444  3
   4654   4657   4658   4661     1  180.0000771  2.0083200  2
   4654   4657   4658   4661     1  0.0000000  1.2552000  3
   4654   4657   4668   4671     1  180.0000771  2.0083200  2
   4654   4657   4668   4671     1  0.0000000  1.2552000  3
   4657   4658   4661   4664     1  0.0000000  0.6508444  3
   4657   4668   4671   4674     1  0.0000000  0.6508444  3
   4658   4657   4668   4671     1  180.0000771  2.0083200  2
   4658   4657   4668   4671     1  0.0000000  1.2552000  3
   4658   4661   4664   4665     1  180.0000771  0.0000000  2
   4658   4661   4664   4666     1  180.0000771  0.0000000  2
   4661   4658   4657   4668     1  180.0000771  2.0083200  2
   4661   4658   4657   4668     1  0.0000000  1.2552000  3
   4668   4671   4674   4675     1  180.0000771  0.0000000  2
   4668   4671   4674   4676     1  180.0000771  0.0000000  2
   4679   4682   4685   4688     1  0.0000000  0.6508444  3
   4682   4685   4688   4689     1  180.0000771  2.0083200  2
   4682   4685   4688   4689     1  0.0000000  1.2552000  3
   4682   4685   4688   4699     1  180.0000771  2.0083200  2
   4682   4685   4688   4699     1  0.0000000  1.2552000  3
   4685   4688   4689   4692     1  180.0000771  2.0083200  2
   4685   4688   4689   4692     1  0.0000000  1.2552000  3
   4685   4688   4699   4702     1  180.0000771  2.0083200  2
   4685   4688   4699   4702     1  0.0000000  1.2552000  3
   4685   4682   4679   4709     1  0.0000000  0.6508444  3
   4688   4689   4692   4695     1  0.0000000  0.6508444  3
   4688   4699   4702   4705     1  0.0000000  0.6508444  3
   4689   4692   4695   4696     1  180.0000771  0.0000000  2
   4689   4692   4695   4697     1  180.0000771  0.0000000  2
   4689   4688   4699   4702     1  180.0000771  2.0083200  2
   4689   4688   4699   4702     1  0.0000000  1.2552000  3
   4692   4689   4688   4699     1  180.0000771  2.0083200  2
   4692   4689   4688   4699     1  0.0000000  1.2552000  3
   4699   4702   4705   4706     1  180.0000771  0.0000000  2
   4699   4702   4705   4707     1  180.0000771  0.0000000  2
   4710   4713   4716   4719     1  0.0000000  0.6508444  3
   4713   4716   4719   4720     1  180.0000771  2.0083200  2
   4713   4716   4719   4720     1  0.0000000  1.2552000  3
   4713   4716   4719   4730     1  180.0000771  2.0083200  2
   4713   4716   4719   4730     1  0.0000000  1.2552000  3
   4716   4713   4710   4740     1  0.0000000  0.6508444  3
   4716   4719   4720   4723     1  180.0000771  2.0083200  2
   4716   4719   4720   4723     1  0.0000000  1.2552000  3
   4716   4719   4730   4733     1  180.0000771  2.0083200  2
   4716   4719   4730   4733     1  0.0000000  1.2552000  3
   4719   4720   4723   4726     1  0.0000000  0.6508444  3
   4719   4730   4733   4736     1  0.0000000  0.6508444  3
   4720   4719   4730   4733     1  180.0000771  2.0083200  2
   4720   4719   4730   4733     1  0.0000000  1.2552000  3
   4720   4723   4726   4727     1  180.0000771  0.0000000  2
   4720   4723   4726   4728     1  180.0000771  0.0000000  2
   4723   4720   4719   4730     1  180.0000771  2.0083200  2
   4723   4720   4719   4730     1  0.0000000  1.2552000  3
   4730   4733   4736   4737     1  180.0000771  0.0000000  2
   4730   4733   4736   4738     1  180.0000771  0.0000000  2
   4741   4744   4747   4750     1  0.0000000  0.6508444  3
   4744   4747   4750   4751     1  180.0000771  2.0083200  2
   4744   4747   4750   4751     1  0.0000000  1.2552000  3
   4744   4747   4750   4761     1  180.0000771  2.0083200  2
   4744   4747   4750   4761     1  0.0000000  1.2552000  3
   4747   4750   4751   4754     1  180.0000771  2.0083200  2
   4747   4750   4751   4754     1  0.0000000  1.2552000  3
   4747   4750   4761   4764     1  180.0000771  2.0083200  2
   4747   4750   4761   4764     1  0.0000000  1.2552000  3
   4747   4744   4741   4771     1  0.0000000  0.6508444  3
   4750   4751   4754   4757     1  0.0000000  0.6508444  3
   4750   4761   4764   4767     1  0.0000000  0.6508444  3
   4751   4754   4757   4758     1  180.0000771  0.0000000  2
   4751   4754   4757   4759     1  180.0000771  0.0000000  2
   4751   4750   4761   4764     1  180.0000771  2.0083200  2
   4751   4750   4761   4764     1  0.0000000  1.2552000  3
   4754   4751   4750   4761     1  180.0000771  2.0083200  2
   4754   4751   4750   4761     1  0.0000000  1.2552000  3
   4761   4764   4767   4768     1  180.0000771  0.0000000  2
   4761   4764   4767   4769     1  180.0000771  0.0000000  2
   4772   4775   4778   4781     1  0.0000000  0.6508444  3
   4775   4778   4781   4782     1  180.0000771  2.0083200  2
   4775   4778   4781   4782     1  0.0000000  1.2552000  3
   4775   4778   4781   4792     1  180.0000771  2.0083200  2
   4775   4778   4781   4792     1  0.0000000  1.2552000  3
   4778   4775   4772   4802     1  0.0000000  0.6508444  3
   4778   4781   4782   4785     1  180.0000771  2.0083200  2
   4778   4781   4782   4785     1  0.0000000  1.2552000  3
   4778   4781   4792   4795     1  180.0000771  2.0083200  2
   4778   4781   4792   4795     1  0.0000000  1.2552000  3
   4781   4782   4785   4788     1  0.0000000  0.6508444  3
   4781   4792   4795   4798     1  0.0000000  0.6508444  3
   4782   4781   4792   4795     1  180.0000771  2.0083200  2
   4782   4781   4792   4795     1  0.0000000  1.2552000  3
   4782   4785   4788   4789     1  180.0000771  0.0000000  2
   4782   4785   4788   4790     1  180.0000771  0.0000000  2
   4785   4782   4781   4792     1  180.0000771  2.0083200  2
   4785   4782   4781   4792     1  0.0000000  1.2552000  3
   4792   4795   4798   4799     1  180.0000771  0.0000000  2
   4792   4795   4798   4800     1  180.0000771  0.0000000  2
   4803   4806   4809   4812     1  0.0000000  0.6508444  3
   4806   4809   4812   4813     1  180.0000771  2.0083200  2
   4806   4809   4812   4813     1  0.0000000  1.2552000  3
   4806   4809   4812   4823     1  180.0000771  2.0083200  2
   4806   4809   4812   4823     1  0.0000000  1.2552000  3
   4809   4812   4813   4816     1  180.0000771  2.0083200  2
   4809   4812   4813   4816     1  0.0000000  1.2552000  3
   4809   4812   4823   4826     1  180.0000771  2.0083200  2
   4809   4812   4823   4826     1  0.0000000  1.2552000  3
   4809   4806   4803   4833     1  0.0000000  0.6508444  3
   4812   4813   4816   4819     1  0.0000000  0.6508444  3
   4812   4823   4826   4829     1  0.0000000  0.6508444  3
   4813   4816   4819   4820     1  180.0000771  0.0000000  2
   4813   4816   4819   4821     1  180.0000771  0.0000000  2
   4813   4812   4823   4826     1  180.0000771  2.0083200  2
   4813   4812   4823   4826     1  0.0000000  1.2552000  3
   4816   4813   4812   4823     1  180.0000771  2.0083200  2
   4816   4813   4812   4823     1  0.0000000  1.2552000  3
   4823   4826   4829   4830     1  180.0000771  0.0000000  2
   4823   4826   4829   4831     1  180.0000771  0.0000000  2
   4834   4837   4840   4843     1  0.0000000  0.6508444  3
   4837   4840   4843   4844     1  180.0000771  2.0083200  2
   4837   4840   4843   4844     1  0.0000000  1.2552000  3
   4837   4840   4843   4854     1  180.0000771  2.0083200  2
   4837   4840   4843   4854     1  0.0000000  1.2552000  3
   4840   4837   4834   4864     1  0.0000000  0.6508444  3
   4840   4843   4844   4847     1  180.0000771  2.0083200  2
   4840   4843   4844   4847     1  0.0000000  1.2552000  3
   4840   4843   4854   4857     1  180.0000771  2.0083200  2
   4840   4843   4854   4857     1  0.0000000  1.2552000  3
   4843   4844   4847   4850     1  0.0000000  0.6508444  3
   4843   4854   4857   4860     1  0.0000000  0.6508444  3
   4844   4843   4854   4857     1  180.0000771  2.0083200  2
   4844   4843   4854   4857     1  0.0000000  1.2552000  3
   4844   4847   4850   4851     1  180.0000771  0.0000000  2
   4844   4847   4850   4852     1  180.0000771  0.0000000  2
   4847   4844   4843   4854     1  180.0000771  2.0083200  2
   4847   4844   4843   4854     1  0.0000000  1.2552000  3
   4854   4857   4860   4861     1  180.0000771  0.0000000  2
   4854   4857   4860   4862     1  180.0000771  0.0000000  2
   4865   4868   4871   4874     1  0.0000000  0.6508444  3
   4868   4871   4874   4875     1  180.0000771  2.0083200  2
   4868   4871   4874   4875     1  0.0000000  1.2552000  3
   4868   4871   4874   4885     1  180.0000771  2.0083200  2
   4868   4871   4874   4885     1  0.0000000  1.2552000  3
   4871   4874   4875   4878     1  180.0000771  2.0083200  2
   4871   4874   4875   4878     1  0.0000000  1.2552000  3
   4871   4874   4885   4888     1  180.0000771  2.0083200  2
   4871   4874   4885   4888     1  0.0000000  1.2552000  3
   4871   4868   4865   4895     1  0.0000000  0.6508444  3
   4874   4875   4878   4881     1  0.0000000  0.6508444  3
   4874   4885   4888   4891     1  0.0000000  0.6508444  3
   4875   4878   4881   4882     1  180.0000771  0.0000000  2
   4875   4878   4881   4883     1  180.0000771  0.0000000  2
   4875   4874   4885   4888     1  180.0000771  2.0083200  2
   4875   4874   4885   4888     1  0.0000000  1.2552000  3
   4878   4875   4874   4885     1  180.0000771  2.0083200  2
   4878   4875   4874   4885     1  0.0000000  1.2552000  3
   4885   4888   4891   4892     1  180.0000771  0.0000000  2
   4885   4888   4891   4893     1  180.0000771  0.0000000  2
   4896   4899   4902   4905     1  0.0000000  0.6508444  3
   4899   4902   4905   4906     1  180.0000771  2.0083200  2
   4899   4902   4905   4906     1  0.0000000  1.2552000  3
   4899   4902   4905   4916     1  180.0000771  2.0083200  2
   4899   4902   4905   4916     1  0.0000000  1.2552000  3
   4902   4899   4896   4926     1  0.0000000  0.6508444  3
   4902   4905   4906   4909     1  180.0000771  2.0083200  2
   4902   4905   4906   4909     1  0.0000000  1.2552000  3
   4902   4905   4916   4919     1  180.0000771  2.0083200  2
   4902   4905   4916   4919     1  0.0000000  1.2552000  3
   4905   4906   4909   4912     1  0.0000000  0.6508444  3
   4905   4916   4919   4922     1  0.0000000  0.6508444  3
   4906   4905   4916   4919     1  180.0000771  2.0083200  2
   4906   4905   4916   4919     1  0.0000000  1.2552000  3
   4906   4909   4912   4913     1  180.0000771  0.0000000  2
   4906   4909   4912   4914     1  180.0000771  0.0000000  2
   4909   4906   4905   4916     1  180.0000771  2.0083200  2
   4909   4906   4905   4916     1  0.0000000  1.2552000  3
   4916   4919   4922   4923     1  180.0000771  0.0000000  2
   4916   4919   4922   4924     1  180.0000771  0.0000000  2
   4927   4930   4933   4936     1  0.0000000  0.6508444  3
   4930   4933   4936   4937     1  180.0000771  2.0083200  2
   4930   4933   4936   4937     1  0.0000000  1.2552000  3
   4930   4933   4936   4947     1  180.0000771  2.0083200  2
   4930   4933   4936   4947     1  0.0000000  1.2552000  3
   4933   4936   4937   4940     1  180.0000771  2.0083200  2
   4933   4936   4937   4940     1  0.0000000  1.2552000  3
   4933   4936   4947   4950     1  180.0000771  2.0083200  2
   4933   4936   4947   4950     1  0.0000000  1.2552000  3
   4933   4930   4927   4957     1  0.0000000  0.6508444  3
   4936   4937   4940   4943     1  0.0000000  0.6508444  3
   4936   4947   4950   4953     1  0.0000000  0.6508444  3
   4937   4940   4943   4944     1  180.0000771  0.0000000  2
   4937   4940   4943   4945     1  180.0000771  0.0000000  2
   4937   4936   4947   4950     1  180.0000771  2.0083200  2
   4937   4936   4947   4950     1  0.0000000  1.2552000  3
   4940   4937   4936   4947     1  180.0000771  2.0083200  2
   4940   4937   4936   4947     1  0.0000000  1.2552000  3
   4947   4950   4953   4954     1  180.0000771  0.0000000  2
   4947   4950   4953   4955     1  180.0000771  0.0000000  2
   4958   4961   4964   4967     1  0.0000000  0.6508444  3
   4961   4964   4967   4968     1  180.0000771  2.0083200  2
   4961   4964   4967   4968     1  0.0000000  1.2552000  3
   4961   4964   4967   4978     1  180.0000771  2.0083200  2
   4961   4964   4967   4978     1  0.0000000  1.2552000  3
   4964   4961   4958   4988     1  0.0000000  0.6508444  3
   4964   4967   4968   4971     1  180.0000771  2.0083200  2
   4964   4967   4968   4971     1  0.0000000  1.2552000  3
   4964   4967   4978   4981     1  180.0000771  2.0083200  2
   4964   4967   4978   4981     1  0.0000000  1.2552000  3
   4967   4968   4971   4974     1  0.0000000  0.6508444  3
   4967   4978   4981   4984     1  0.0000000  0.6508444  3
   4968   4967   4978   4981     1  180.0000771  2.0083200  2
   4968   4967   4978   4981     1  0.0000000  1.2552000  3
   4968   4971   4974   4975     1  180.0000771  0.0000000  2
   4968   4971   4974   4976     1  180.0000771  0.0000000  2
   4971   4968   4967   4978     1  180.0000771  2.0083200  2
   4971   4968   4967   4978     1  0.0000000  1.2552000  3
   4978   4981   4984   4985     1  180.0000771  0.0000000  2
   4978   4981   4984   4986     1  180.0000771  0.0000000  2
   4989   4992   4995   4998     1  0.0000000  0.6508444  3
   4992   4995   4998   4999     1  180.0000771  2.0083200  2
   4992   4995   4998   4999     1  0.0000000  1.2552000  3
   4992   4995   4998   5009     1  180.0000771  2.0083200  2
   4992   4995   4998   5009     1  0.0000000  1.2552000  3
   4995   4998   4999   5002     1  180.0000771  2.0083200  2
   4995   4998   4999   5002     1  0.0000000  1.2552000  3
   4995   4998   5009   5012     1  180.0000771  2.0083200  2
   4995   4998   5009   5012     1  0.0000000  1.2552000  3
   4995   4992   4989   5019     1  0.0000000  0.6508444  3
   4998   4999   5002   5005     1  0.0000000  0.6508444  3
   4998   5009   5012   5015     1  0.0000000  0.6508444  3
   4999   5002   5005   5006     1  180.0000771  0.0000000  2
   4999   5002   5005   5007     1  180.0000771  0.0000000  2
   4999   4998   5009   5012     1  180.0000771  2.0083200  2
   4999   4998   5009   5012     1  0.0000000  1.2552000  3
   5002   4999   4998   5009     1  180.0000771  2.0083200  2
   5002   4999   4998   5009     1  0.0000000  1.2552000  3
   5009   5012   5015   5016     1  180.0000771  0.0000000  2
   5009   5012   5015   5017     1  180.0000771  0.0000000  2
   5020   5023   5026   5029     1  0.0000000  0.6508444  3
   5023   5026   5029   5030     1  180.0000771  2.0083200  2
   5023   5026   5029   5030     1  0.0000000  1.2552000  3
   5023   5026   5029   5040     1  180.0000771  2.0083200  2
   5023   5026   5029   5040     1  0.0000000  1.2552000  3
   5026   5023   5020   5050     1  0.0000000  0.6508444  3
   5026   5029   5030   5033     1  180.0000771  2.0083200  2
   5026   5029   5030   5033     1  0.0000000  1.2552000  3
   5026   5029   5040   5043     1  180.0000771  2.0083200  2
   5026   5029   5040   5043     1  0.0000000  1.2552000  3
   5029   5030   5033   5036     1  0.0000000  0.6508444  3
   5029   5040   5043   5046     1  0.0000000  0.6508444  3
   5030   5029   5040   5043     1  180.0000771  2.0083200  2
   5030   5029   5040   5043     1  0.0000000  1.2552000  3
   5030   5033   5036   5037     1  180.0000771  0.0000000  2
   5030   5033   5036   5038     1  180.0000771  0.0000000  2
   5033   5030   5029   5040     1  180.0000771  2.0083200  2
   5033   5030   5029   5040     1  0.0000000  1.2552000  3
   5040   5043   5046   5047     1  180.0000771  0.0000000  2
   5040   5043   5046   5048     1  180.0000771  0.0000000  2
   5051   5054   5057   5060     1  0.0000000  0.6508444  3
   5054   5057   5060   5061     1  180.0000771  2.0083200  2
   5054   5057   5060   5061     1  0.0000000  1.2552000  3
   5054   5057   5060   5071     1  180.0000771  2.0083200  2
   5054   5057   5060   5071     1  0.0000000  1.2552000  3
   5057   5060   5061   5064     1  180.0000771  2.0083200  2
   5057   5060   5061   5064     1  0.0000000  1.2552000  3
   5057   5060   5071   5074     1  180.0000771  2.0083200  2
   5057   5060   5071   5074     1  0.0000000  1.2552000  3
   5057   5054   5051   5081     1  0.0000000  0.6508444  3
   5060   5061   5064   5067     1  0.0000000  0.6508444  3
   5060   5071   5074   5077     1  0.0000000  0.6508444  3
   5061   5064   5067   5068     1  180.0000771  0.0000000  2
   5061   5064   5067   5069     1  180.0000771  0.0000000  2
   5061   5060   5071   5074     1  180.0000771  2.0083200  2
   5061   5060   5071   5074     1  0.0000000  1.2552000  3
   5064   5061   5060   5071     1  180.0000771  2.0083200  2
   5064   5061   5060   5071     1  0.0000000  1.2552000  3
   5071   5074   5077   5078     1  180.0000771  0.0000000  2
   5071   5074   5077   5079     1  180.0000771  0.0000000  2
   5082   5085   5088   5091     1  0.0000000  0.6508444  3
   5085   5088   5091   5092     1  180.0000771  2.0083200  2
   5085   5088   5091   5092     1  0.0000000  1.2552000  3
   5085   5088   5091   5102     1  180.0000771  2.0083200  2
   5085   5088   5091   5102     1  0.0000000  1.2552000  3
   5088   5085   5082   5112     1  0.0000000  0.6508444  3
   5088   5091   5092   5095     1  180.0000771  2.0083200  2
   5088   5091   5092   5095     1  0.0000000  1.2552000  3
   5088   5091   5102   5105     1  180.0000771  2.0083200  2
   5088   5091   5102   5105     1  0.0000000  1.2552000  3
   5091   5092   5095   5098     1  0.0000000  0.6508444  3
   5091   5102   5105   5108     1  0.0000000  0.6508444  3
   5092   5091   5102   5105     1  180.0000771  2.0083200  2
   5092   5091   5102   5105     1  0.0000000  1.2552000  3
   5092   5095   5098   5099     1  180.0000771  0.0000000  2
   5092   5095   5098   5100     1  180.0000771  0.0000000  2
   5095   5092   5091   5102     1  180.0000771  2.0083200  2
   5095   5092   5091   5102     1  0.0000000  1.2552000  3
   5102   5105   5108   5109     1  180.0000771  0.0000000  2
   5102   5105   5108   5110     1  180.0000771  0.0000000  2
   5113   5116   5119   5122     1  0.0000000  0.6508444  3
   5116   5119   5122   5123     1  180.0000771  2.0083200  2
   5116   5119   5122   5123     1  0.0000000  1.2552000  3
   5116   5119   5122   5133     1  180.0000771  2.0083200  2
   5116   5119   5122   5133     1  0.0000000  1.2552000  3
   5119   5122   5123   5126     1  180.0000771  2.0083200  2
   5119   5122   5123   5126     1  0.0000000  1.2552000  3
   5119   5122   5133   5136     1  180.0000771  2.0083200  2
   5119   5122   5133   5136     1  0.0000000  1.2552000  3
   5119   5116   5113   5143     1  0.0000000  0.6508444  3
   5122   5123   5126   5129     1  0.0000000  0.6508444  3
   5122   5133   5136   5139     1  0.0000000  0.6508444  3
   5123   5126   5129   5130     1  180.0000771  0.0000000  2
   5123   5126   5129   5131     1  180.0000771  0.0000000  2
   5123   5122   5133   5136     1  180.0000771  2.0083200  2
   5123   5122   5133   5136     1  0.0000000  1.2552000  3
   5126   5123   5122   5133     1  180.0000771  2.0083200  2
   5126   5123   5122   5133     1  0.0000000  1.2552000  3
   5133   5136   5139   5140     1  180.0000771  0.0000000  2
   5133   5136   5139   5141     1  180.0000771  0.0000000  2
   5144   5147   5150   5153     1  0.0000000  0.6508444  3
   5147   5150   5153   5154     1  180.0000771  2.0083200  2
   5147   5150   5153   5154     1  0.0000000  1.2552000  3
   5147   5150   5153   5164     1  180.0000771  2.0083200  2
   5147   5150   5153   5164     1  0.0000000  1.2552000  3
   5150   5147   5144   5174     1  0.0000000  0.6508444  3
   5150   5153   5154   5157     1  180.0000771  2.0083200  2
   5150   5153   5154   5157     1  0.0000000  1.2552000  3
   5150   5153   5164   5167     1  180.0000771  2.0083200  2
   5150   5153   5164   5167     1  0.0000000  1.2552000  3
   5153   5154   5157   5160     1  0.0000000  0.6508444  3
   5153   5164   5167   5170     1  0.0000000  0.6508444  3
   5154   5153   5164   5167     1  180.0000771  2.0083200  2
   5154   5153   5164   5167     1  0.0000000  1.2552000  3
   5154   5157   5160   5161     1  180.0000771  0.0000000  2
   5154   5157   5160   5162     1  180.0000771  0.0000000  2
   5157   5154   5153   5164     1  180.0000771  2.0083200  2
   5157   5154   5153   5164     1  0.0000000  1.2552000  3
   5164   5167   5170   5171     1  180.0000771  0.0000000  2
   5164   5167   5170   5172     1  180.0000771  0.0000000  2
   5175   5178   5181   5184     1  0.0000000  0.6508444  3
   5178   5181   5184   5185     1  180.0000771  2.0083200  2
   5178   5181   5184   5185     1  0.0000000  1.2552000  3
   5178   5181   5184   5195     1  180.0000771  2.0083200  2
   5178   5181   5184   5195     1  0.0000000  1.2552000  3
   5181   5184   5185   5188     1  180.0000771  2.0083200  2
   5181   5184   5185   5188     1  0.0000000  1.2552000  3
   5181   5184   5195   5198     1  180.0000771  2.0083200  2
   5181   5184   5195   5198     1  0.0000000  1.2552000  3
   5181   5178   5175   5205     1  0.0000000  0.6508444  3
   5184   5185   5188   5191     1  0.0000000  0.6508444  3
   5184   5195   5198   5201     1  0.0000000  0.6508444  3
   5185   5188   5191   5192     1  180.0000771  0.0000000  2
   5185   5188   5191   5193     1  180.0000771  0.0000000  2
   5185   5184   5195   5198     1  180.0000771  2.0083200  2
   5185   5184   5195   5198     1  0.0000000  1.2552000  3
   5188   5185   5184   5195     1  180.0000771  2.0083200  2
   5188   5185   5184   5195     1  0.0000000  1.2552000  3
   5195   5198   5201   5202     1  180.0000771  0.0000000  2
   5195   5198   5201   5203     1  180.0000771  0.0000000  2
   5206   5209   5212   5215     1  0.0000000  0.6508444  3
   5209   5212   5215   5216     1  180.0000771  2.0083200  2
   5209   5212   5215   5216     1  0.0000000  1.2552000  3
   5209   5212   5215   5226     1  180.0000771  2.0083200  2
   5209   5212   5215   5226     1  0.0000000  1.2552000  3
   5212   5209   5206   5236     1  0.0000000  0.6508444  3
   5212   5215   5216   5219     1  180.0000771  2.0083200  2
   5212   5215   5216   5219     1  0.0000000  1.2552000  3
   5212   5215   5226   5229     1  180.0000771  2.0083200  2
   5212   5215   5226   5229     1  0.0000000  1.2552000  3
   5215   5216   5219   5222     1  0.0000000  0.6508444  3
   5215   5226   5229   5232     1  0.0000000  0.6508444  3
   5216   5215   5226   5229     1  180.0000771  2.0083200  2
   5216   5215   5226   5229     1  0.0000000  1.2552000  3
   5216   5219   5222   5223     1  180.0000771  0.0000000  2
   5216   5219   5222   5224     1  180.0000771  0.0000000  2
   5219   5216   5215   5226     1  180.0000771  2.0083200  2
   5219   5216   5215   5226     1  0.0000000  1.2552000  3
   5226   5229   5232   5233     1  180.0000771  0.0000000  2
   5226   5229   5232   5234     1  180.0000771  0.0000000  2
   5237   5240   5243   5246     1  0.0000000  0.6508444  3
   5240   5243   5246   5247     1  180.0000771  2.0083200  2
   5240   5243   5246   5247     1  0.0000000  1.2552000  3
   5240   5243   5246   5257     1  180.0000771  2.0083200  2
   5240   5243   5246   5257     1  0.0000000  1.2552000  3
   5243   5246   5247   5250     1  180.0000771  2.0083200  2
   5243   5246   5247   5250     1  0.0000000  1.2552000  3
   5243   5246   5257   5260     1  180.0000771  2.0083200  2
   5243   5246   5257   5260     1  0.0000000  1.2552000  3
   5243   5240   5237   5267     1  0.0000000  0.6508444  3
   5246   5247   5250   5253     1  0.0000000  0.6508444  3
   5246   5257   5260   5263     1  0.0000000  0.6508444  3
   5247   5250   5253   5254     1  180.0000771  0.0000000  2
   5247   5250   5253   5255     1  180.0000771  0.0000000  2
   5247   5246   5257   5260     1  180.0000771  2.0083200  2
   5247   5246   5257   5260     1  0.0000000  1.2552000  3
   5250   5247   5246   5257     1  180.0000771  2.0083200  2
   5250   5247   5246   5257     1  0.0000000  1.2552000  3
   5257   5260   5263   5264     1  180.0000771  0.0000000  2
   5257   5260   5263   5265     1  180.0000771  0.0000000  2
   5268   5271   5274   5277     1  0.0000000  0.6508444  3
   5271   5274   5277   5278     1  180.0000771  2.0083200  2
   5271   5274   5277   5278     1  0.0000000  1.2552000  3
   5271   5274   5277   5288     1  180.0000771  2.0083200  2
   5271   5274   5277   5288     1  0.0000000  1.2552000  3
   5274   5271   5268   5298     1  0.0000000  0.6508444  3
   5274   5277   5278   5281     1  180.0000771  2.0083200  2
   5274   5277   5278   5281     1  0.0000000  1.2552000  3
   5274   5277   5288   5291     1  180.0000771  2.0083200  2
   5274   5277   5288   5291     1  0.0000000  1.2552000  3
   5277   5278   5281   5284     1  0.0000000  0.6508444  3
   5277   5288   5291   5294     1  0.0000000  0.6508444  3
   5278   5277   5288   5291     1  180.0000771  2.0083200  2
   5278   5277   5288   5291     1  0.0000000  1.2552000  3
   5278   5281   5284   5285     1  180.0000771  0.0000000  2
   5278   5281   5284   5286     1  180.0000771  0.0000000  2
   5281   5278   5277   5288     1  180.0000771  2.0083200  2
   5281   5278   5277   5288     1  0.0000000  1.2552000  3
   5288   5291   5294   5295     1  180.0000771  0.0000000  2
   5288   5291   5294   5296     1  180.0000771  0.0000000  2
   5299   5302   5305   5308     1  0.0000000  0.6508444  3
   5302   5305   5308   5309     1  180.0000771  2.0083200  2
   5302   5305   5308   5309     1  0.0000000  1.2552000  3
   5302   5305   5308   5319     1  180.0000771  2.0083200  2
   5302   5305   5308   5319     1  0.0000000  1.2552000  3
   5305   5308   5309   5312     1  180.0000771  2.0083200  2
   5305   5308   5309   5312     1  0.0000000  1.2552000  3
   5305   5308   5319   5322     1  180.0000771  2.0083200  2
   5305   5308   5319   5322     1  0.0000000  1.2552000  3
   5305   5302   5299   5329     1  0.0000000  0.6508444  3
   5308   5309   5312   5315     1  0.0000000  0.6508444  3
   5308   5319   5322   5325     1  0.0000000  0.6508444  3
   5309   5312   5315   5316     1  180.0000771  0.0000000  2
   5309   5312   5315   5317     1  180.0000771  0.0000000  2
   5309   5308   5319   5322     1  180.0000771  2.0083200  2
   5309   5308   5319   5322     1  0.0000000  1.2552000  3
   5312   5309   5308   5319     1  180.0000771  2.0083200  2
   5312   5309   5308   5319     1  0.0000000  1.2552000  3
   5319   5322   5325   5326     1  180.0000771  0.0000000  2
   5319   5322   5325   5327     1  180.0000771  0.0000000  2
   5330   5333   5336   5339     1  0.0000000  0.6508444  3
   5333   5336   5339   5340     1  180.0000771  2.0083200  2
   5333   5336   5339   5340     1  0.0000000  1.2552000  3
   5333   5336   5339   5350     1  180.0000771  2.0083200  2
   5333   5336   5339   5350     1  0.0000000  1.2552000  3
   5336   5333   5330   5360     1  0.0000000  0.6508444  3
   5336   5339   5340   5343     1  180.0000771  2.0083200  2
   5336   5339   5340   5343     1  0.0000000  1.2552000  3
   5336   5339   5350   5353     1  180.0000771  2.0083200  2
   5336   5339   5350   5353     1  0.0000000  1.2552000  3
   5339   5340   5343   5346     1  0.0000000  0.6508444  3
   5339   5350   5353   5356     1  0.0000000  0.6508444  3
   5340   5339   5350   5353     1  180.0000771  2.0083200  2
   5340   5339   5350   5353     1  0.0000000  1.2552000  3
   5340   5343   5346   5347     1  180.0000771  0.0000000  2
   5340   5343   5346   5348     1  180.0000771  0.0000000  2
   5343   5340   5339   5350     1  180.0000771  2.0083200  2
   5343   5340   5339   5350     1  0.0000000  1.2552000  3
   5350   5353   5356   5357     1  180.0000771  0.0000000  2
   5350   5353   5356   5358     1  180.0000771  0.0000000  2
   5361   5364   5367   5370     1  0.0000000  0.6508444  3
   5364   5367   5370   5371     1  180.0000771  2.0083200  2
   5364   5367   5370   5371     1  0.0000000  1.2552000  3
   5364   5367   5370   5381     1  180.0000771  2.0083200  2
   5364   5367   5370   5381     1  0.0000000  1.2552000  3
   5367   5370   5371   5374     1  180.0000771  2.0083200  2
   5367   5370   5371   5374     1  0.0000000  1.2552000  3
   5367   5370   5381   5384     1  180.0000771  2.0083200  2
   5367   5370   5381   5384     1  0.0000000  1.2552000  3
   5367   5364   5361   5391     1  0.0000000  0.6508444  3
   5370   5371   5374   5377     1  0.0000000  0.6508444  3
   5370   5381   5384   5387     1  0.0000000  0.6508444  3
   5371   5374   5377   5378     1  180.0000771  0.0000000  2
   5371   5374   5377   5379     1  180.0000771  0.0000000  2
   5371   5370   5381   5384     1  180.0000771  2.0083200  2
   5371   5370   5381   5384     1  0.0000000  1.2552000  3
   5374   5371   5370   5381     1  180.0000771  2.0083200  2
   5374   5371   5370   5381     1  0.0000000  1.2552000  3
   5381   5384   5387   5388     1  180.0000771  0.0000000  2
   5381   5384   5387   5389     1  180.0000771  0.0000000  2
   5392   5395   5398   5401     1  0.0000000  0.6508444  3
   5395   5398   5401   5402     1  180.0000771  2.0083200  2
   5395   5398   5401   5402     1  0.0000000  1.2552000  3
   5395   5398   5401   5412     1  180.0000771  2.0083200  2
   5395   5398   5401   5412     1  0.0000000  1.2552000  3
   5398   5395   5392   5422     1  0.0000000  0.6508444  3
   5398   5401   5402   5405     1  180.0000771  2.0083200  2
   5398   5401   5402   5405     1  0.0000000  1.2552000  3
   5398   5401   5412   5415     1  180.0000771  2.0083200  2
   5398   5401   5412   5415     1  0.0000000  1.2552000  3
   5401   5402   5405   5408     1  0.0000000  0.6508444  3
   5401   5412   5415   5418     1  0.0000000  0.6508444  3
   5402   5401   5412   5415     1  180.0000771  2.0083200  2
   5402   5401   5412   5415     1  0.0000000  1.2552000  3
   5402   5405   5408   5409     1  180.0000771  0.0000000  2
   5402   5405   5408   5410     1  180.0000771  0.0000000  2
   5405   5402   5401   5412     1  180.0000771  2.0083200  2
   5405   5402   5401   5412     1  0.0000000  1.2552000  3
   5412   5415   5418   5419     1  180.0000771  0.0000000  2
   5412   5415   5418   5420     1  180.0000771  0.0000000  2
   5423   5426   5429   5432     1  0.0000000  0.6508444  3
   5426   5429   5432   5433     1  180.0000771  2.0083200  2
   5426   5429   5432   5433     1  0.0000000  1.2552000  3
   5426   5429   5432   5443     1  180.0000771  2.0083200  2
   5426   5429   5432   5443     1  0.0000000  1.2552000  3
   5429   5432   5433   5436     1  180.0000771  2.0083200  2
   5429   5432   5433   5436     1  0.0000000  1.2552000  3
   5429   5432   5443   5446     1  180.0000771  2.0083200  2
   5429   5432   5443   5446     1  0.0000000  1.2552000  3
   5429   5426   5423   5453     1  0.0000000  0.6508444  3
   5432   5433   5436   5439     1  0.0000000  0.6508444  3
   5432   5443   5446   5449     1  0.0000000  0.6508444  3
   5433   5436   5439   5440     1  180.0000771  0.0000000  2
   5433   5436   5439   5441     1  180.0000771  0.0000000  2
   5433   5432   5443   5446     1  180.0000771  2.0083200  2
   5433   5432   5443   5446     1  0.0000000  1.2552000  3
   5436   5433   5432   5443     1  180.0000771  2.0083200  2
   5436   5433   5432   5443     1  0.0000000  1.2552000  3
   5443   5446   5449   5450     1  180.0000771  0.0000000  2
   5443   5446   5449   5451     1  180.0000771  0.0000000  2
   5454   5457   5460   5463     1  0.0000000  0.6508444  3
   5457   5460   5463   5464     1  180.0000771  2.0083200  2
   5457   5460   5463   5464     1  0.0000000  1.2552000  3
   5457   5460   5463   5474     1  180.0000771  2.0083200  2
   5457   5460   5463   5474     1  0.0000000  1.2552000  3
   5460   5457   5454   5484     1  0.0000000  0.6508444  3
   5460   5463   5464   5467     1  180.0000771  2.0083200  2
   5460   5463   5464   5467     1  0.0000000  1.2552000  3
   5460   5463   5474   5477     1  180.0000771  2.0083200  2
   5460   5463   5474   5477     1  0.0000000  1.2552000  3
   5463   5464   5467   5470     1  0.0000000  0.6508444  3
   5463   5474   5477   5480     1  0.0000000  0.6508444  3
   5464   5463   5474   5477     1  180.0000771  2.0083200  2
   5464   5463   5474   5477     1  0.0000000  1.2552000  3
   5464   5467   5470   5471     1  180.0000771  0.0000000  2
   5464   5467   5470   5472     1  180.0000771  0.0000000  2
   5467   5464   5463   5474     1  180.0000771  2.0083200  2
   5467   5464   5463   5474     1  0.0000000  1.2552000  3
   5474   5477   5480   5481     1  180.0000771  0.0000000  2
   5474   5477   5480   5482     1  180.0000771  0.0000000  2
   5485   5488   5491   5494     1  0.0000000  0.6508444  3
   5488   5491   5494   5495     1  180.0000771  2.0083200  2
   5488   5491   5494   5495     1  0.0000000  1.2552000  3
   5488   5491   5494   5505     1  180.0000771  2.0083200  2
   5488   5491   5494   5505     1  0.0000000  1.2552000  3
   5491   5494   5495   5498     1  180.0000771  2.0083200  2
   5491   5494   5495   5498     1  0.0000000  1.2552000  3
   5491   5494   5505   5508     1  180.0000771  2.0083200  2
   5491   5494   5505   5508     1  0.0000000  1.2552000  3
   5491   5488   5485   5515     1  0.0000000  0.6508444  3
   5494   5495   5498   5501     1  0.0000000  0.6508444  3
   5494   5505   5508   5511     1  0.0000000  0.6508444  3
   5495   5498   5501   5502     1  180.0000771  0.0000000  2
   5495   5498   5501   5503     1  180.0000771  0.0000000  2
   5495   5494   5505   5508     1  180.0000771  2.0083200  2
   5495   5494   5505   5508     1  0.0000000  1.2552000  3
   5498   5495   5494   5505     1  180.0000771  2.0083200  2
   5498   5495   5494   5505     1  0.0000000  1.2552000  3
   5505   5508   5511   5512     1  180.0000771  0.0000000  2
   5505   5508   5511   5513     1  180.0000771  0.0000000  2
   5516   5519   5522   5525     1  0.0000000  0.6508444  3
   5519   5522   5525   5526     1  180.0000771  2.0083200  2
   5519   5522   5525   5526     1  0.0000000  1.2552000  3
   5519   5522   5525   5536     1  180.0000771  2.0083200  2
   5519   5522   5525   5536     1  0.0000000  1.2552000  3
   5522   5519   5516   5546     1  0.0000000  0.6508444  3
   5522   5525   5526   5529     1  180.0000771  2.0083200  2
   5522   5525   5526   5529     1  0.0000000  1.2552000  3
   5522   5525   5536   5539     1  180.0000771  2.0083200  2
   5522   5525   5536   5539     1  0.0000000  1.2552000  3
   5525   5526   5529   5532     1  0.0000000  0.6508444  3
   5525   5536   5539   5542     1  0.0000000  0.6508444  3
   5526   5525   5536   5539     1  180.0000771  2.0083200  2
   5526   5525   5536   5539     1  0.0000000  1.2552000  3
   5526   5529   5532   5533     1  180.0000771  0.0000000  2
   5526   5529   5532   5534     1  180.0000771  0.0000000  2
   5529   5526   5525   5536     1  180.0000771  2.0083200  2
   5529   5526   5525   5536     1  0.0000000  1.2552000  3
   5536   5539   5542   5543     1  180.0000771  0.0000000  2
   5536   5539   5542   5544     1  180.0000771  0.0000000  2
   5547   5550   5553   5556     1  0.0000000  0.6508444  3
   5550   5553   5556   5557     1  180.0000771  2.0083200  2
   5550   5553   5556   5557     1  0.0000000  1.2552000  3
   5550   5553   5556   5567     1  180.0000771  2.0083200  2
   5550   5553   5556   5567     1  0.0000000  1.2552000  3
   5553   5556   5557   5560     1  180.0000771  2.0083200  2
   5553   5556   5557   5560     1  0.0000000  1.2552000  3
   5553   5556   5567   5570     1  180.0000771  2.0083200  2
   5553   5556   5567   5570     1  0.0000000  1.2552000  3
   5553   5550   5547   5577     1  0.0000000  0.6508444  3
   5556   5557   5560   5563     1  0.0000000  0.6508444  3
   5556   5567   5570   5573     1  0.0000000  0.6508444  3
   5557   5560   5563   5564     1  180.0000771  0.0000000  2
   5557   5560   5563   5565     1  180.0000771  0.0000000  2
   5557   5556   5567   5570     1  180.0000771  2.0083200  2
   5557   5556   5567   5570     1  0.0000000  1.2552000  3
   5560   5557   5556   5567     1  180.0000771  2.0083200  2
   5560   5557   5556   5567     1  0.0000000  1.2552000  3
   5567   5570   5573   5574     1  180.0000771  0.0000000  2
   5567   5570   5573   5575     1  180.0000771  0.0000000  2
   5578   5581   5584   5587     1  0.0000000  0.6508444  3
   5581   5584   5587   5588     1  180.0000771  2.0083200  2
   5581   5584   5587   5588     1  0.0000000  1.2552000  3
   5581   5584   5587   5598     1  180.0000771  2.0083200  2
   5581   5584   5587   5598     1  0.0000000  1.2552000  3
   5584   5581   5578   5608     1  0.0000000  0.6508444  3
   5584   5587   5588   5591     1  180.0000771  2.0083200  2
   5584   5587   5588   5591     1  0.0000000  1.2552000  3
   5584   5587   5598   5601     1  180.0000771  2.0083200  2
   5584   5587   5598   5601     1  0.0000000  1.2552000  3
   5587   5588   5591   5594     1  0.0000000  0.6508444  3
   5587   5598   5601   5604     1  0.0000000  0.6508444  3
   5588   5587   5598   5601     1  180.0000771  2.0083200  2
   5588   5587   5598   5601     1  0.0000000  1.2552000  3
   5588   5591   5594   5595     1  180.0000771  0.0000000  2
   5588   5591   5594   5596     1  180.0000771  0.0000000  2
   5591   5588   5587   5598     1  180.0000771  2.0083200  2
   5591   5588   5587   5598     1  0.0000000  1.2552000  3
   5598   5601   5604   5605     1  180.0000771  0.0000000  2
   5598   5601   5604   5606     1  180.0000771  0.0000000  2
   5609   5612   5615   5618     1  0.0000000  0.6508444  3
   5612   5615   5618   5619     1  180.0000771  2.0083200  2
   5612   5615   5618   5619     1  0.0000000  1.2552000  3
   5612   5615   5618   5629     1  180.0000771  2.0083200  2
   5612   5615   5618   5629     1  0.0000000  1.2552000  3
   5615   5618   5619   5622     1  180.0000771  2.0083200  2
   5615   5618   5619   5622     1  0.0000000  1.2552000  3
   5615   5618   5629   5632     1  180.0000771  2.0083200  2
   5615   5618   5629   5632     1  0.0000000  1.2552000  3
   5615   5612   5609   5639     1  0.0000000  0.6508444  3
   5618   5619   5622   5625     1  0.0000000  0.6508444  3
   5618   5629   5632   5635     1  0.0000000  0.6508444  3
   5619   5622   5625   5626     1  180.0000771  0.0000000  2
   5619   5622   5625   5627     1  180.0000771  0.0000000  2
   5619   5618   5629   5632     1  180.0000771  2.0083200  2
   5619   5618   5629   5632     1  0.0000000  1.2552000  3
   5622   5619   5618   5629     1  180.0000771  2.0083200  2
   5622   5619   5618   5629     1  0.0000000  1.2552000  3
   5629   5632   5635   5636     1  180.0000771  0.0000000  2
   5629   5632   5635   5637     1  180.0000771  0.0000000  2
   5640   5643   5646   5649     1  0.0000000  0.6508444  3
   5643   5646   5649   5650     1  180.0000771  2.0083200  2
   5643   5646   5649   5650     1  0.0000000  1.2552000  3
   5643   5646   5649   5660     1  180.0000771  2.0083200  2
   5643   5646   5649   5660     1  0.0000000  1.2552000  3
   5646   5643   5640   5670     1  0.0000000  0.6508444  3
   5646   5649   5650   5653     1  180.0000771  2.0083200  2
   5646   5649   5650   5653     1  0.0000000  1.2552000  3
   5646   5649   5660   5663     1  180.0000771  2.0083200  2
   5646   5649   5660   5663     1  0.0000000  1.2552000  3
   5649   5650   5653   5656     1  0.0000000  0.6508444  3
   5649   5660   5663   5666     1  0.0000000  0.6508444  3
   5650   5649   5660   5663     1  180.0000771  2.0083200  2
   5650   5649   5660   5663     1  0.0000000  1.2552000  3
   5650   5653   5656   5657     1  180.0000771  0.0000000  2
   5650   5653   5656   5658     1  180.0000771  0.0000000  2
   5653   5650   5649   5660     1  180.0000771  2.0083200  2
   5653   5650   5649   5660     1  0.0000000  1.2552000  3
   5660   5663   5666   5667     1  180.0000771  0.0000000  2
   5660   5663   5666   5668     1  180.0000771  0.0000000  2
   5671   5674   5677   5680     1  0.0000000  0.6508444  3
   5674   5677   5680   5681     1  180.0000771  2.0083200  2
   5674   5677   5680   5681     1  0.0000000  1.2552000  3
   5674   5677   5680   5691     1  180.0000771  2.0083200  2
   5674   5677   5680   5691     1  0.0000000  1.2552000  3
   5677   5680   5681   5684     1  180.0000771  2.0083200  2
   5677   5680   5681   5684     1  0.0000000  1.2552000  3
   5677   5680   5691   5694     1  180.0000771  2.0083200  2
   5677   5680   5691   5694     1  0.0000000  1.2552000  3
   5677   5674   5671   5701     1  0.0000000  0.6508444  3
   5680   5681   5684   5687     1  0.0000000  0.6508444  3
   5680   5691   5694   5697     1  0.0000000  0.6508444  3
   5681   5684   5687   5688     1  180.0000771  0.0000000  2
   5681   5684   5687   5689     1  180.0000771  0.0000000  2
   5681   5680   5691   5694     1  180.0000771  2.0083200  2
   5681   5680   5691   5694     1  0.0000000  1.2552000  3
   5684   5681   5680   5691     1  180.0000771  2.0083200  2
   5684   5681   5680   5691     1  0.0000000  1.2552000  3
   5691   5694   5697   5698     1  180.0000771  0.0000000  2
   5691   5694   5697   5699     1  180.0000771  0.0000000  2
   2739   2743   2742   2744     4  180.0000771  4.6024000  2
   2749   2753   2752   2754     4  180.0000771  4.6024000  2
   2770   2774   2773   2775     4  180.0000771  4.6024000  2
   2780   2784   2783   2785     4  180.0000771  4.6024000  2
   2801   2805   2804   2806     4  180.0000771  4.6024000  2
   2811   2815   2814   2816     4  180.0000771  4.6024000  2
   2832   2836   2835   2837     4  180.0000771  4.6024000  2
   2842   2846   2845   2847     4  180.0000771  4.6024000  2
   2863   2867   2866   2868     4  180.0000771  4.6024000  2
   2873   2877   2876   2878     4  180.0000771  4.6024000  2
   2894   2898   2897   2899     4  180.0000771  4.6024000  2
   2904   2908   2907   2909     4  180.0000771  4.6024000  2
   2925   2929   2928   2930     4  180.0000771  4.6024000  2
   2935   2939   2938   2940     4  180.0000771  4.6024000  2
   2956   2960   2959   2961     4  180.0000771  4.6024000  2
   2966   2970   2969   2971     4  180.0000771  4.6024000  2
   2987   2991   2990   2992     4  180.0000771  4.6024000  2
   2997   3001   3000   3002     4  180.0000771  4.6024000  2
   3018   3022   3021   3023     4  180.0000771  4.6024000  2
   3028   3032   3031   3033     4  180.0000771  4.6024000  2
   3049   3053   3052   3054     4  180.0000771  4.6024000  2
   3059   3063   3062   3064     4  180.0000771  4.6024000  2
   3080   3084   3083   3085     4  180.0000771  4.6024000  2
   3090   3094   3093   3095     4  180.0000771  4.6024000  2
   3111   3115   3114   3116     4  180.0000771  4.6024000  2
   3121   3125   3124   3126     4  180.0000771  4.6024000  2
   3142   3146   3145   3147     4  180.0000771  4.6024000  2
   3152   3156   3155   3157     4  180.0000771  4.6024000  2
   3173   3177   3176   3178     4  180.0000771  4.6024000  2
   3183   3187   3186   3188     4  180.0000771  4.6024000  2
   3204   3208   3207   3209     4  180.0000771  4.6024000  2
   3214   3218   3217   3219     4  180.0000771  4.6024000  2
   3235   3239   3238   3240     4  180.0000771  4.6024000  2
   3245   3249   3248   3250     4  180.0000771  4.6024000  2
   3266   3270   3269   3271     4  180.0000771  4.6024000  2
   3276   3280   3279   3281     4  180.0000771  4.6024000  2
   3297   3301   3300   3302     4  180.0000771  4.6024000  2
   3307   3311   3310   3312     4  180.0000771  4.6024000  2
   3328   3332   3331   3333     4  180.0000771  4.6024000  2
   3338   3342   3341   3343     4  180.0000771  4.6024000  2
   3359   3363   3362   3364     4  180.0000771  4.6024000  2
   3369   3373   3372   3374     4  180.0000771  4.6024000  2
   3390   3394   3393   3395     4  180.0000771  4.6024000  2
   3400   3404   3403   3405     4  180.0000771  4.6024000  2
   3421   3425   3424   3426     4  180.0000771  4.6024000  2
   3431   3435   3434   3436     4  180.0000771  4.6024000  2
   3452   3456   3455   3457     4  180.0000771  4.6024000  2
   3462   3466   3465   3467     4  180.0000771  4.6024000  2
   3483   3487   3486   3488     4  180.0000771  4.6024000  2
   3493   3497   3496   3498     4  180.0000771  4.6024000  2
   3514   3518   3517   3519     4  180.0000771  4.6024000  2
   3524   3528   3527   3529     4  180.0000771  4.6024000  2
   3545   3549   3548   3550     4  180.0000771  4.6024000  2
   3555   3559   3558   3560     4  180.0000771  4.6024000  2
   3576   3580   3579   3581     4  180.0000771  4.6024000  2
   3586   3590   3589   3591     4  180.0000771  4.6024000  2
   3607   3611   3610   3612     4  180.0000771  4.6024000  2
   3617   3621   3620   3622     4  180.0000771  4.6024000  2
   3638   3642   3641   3643     4  180.0000771  4.6024000  2
   3648   3652   3651   3653     4  180.0000771  4.6024000  2
   3669   3673   3672   3674     4  180.0000771  4.6024000  2
   3679   3683   3682   3684     4  180.0000771  4.6024000  2
   3700   3704   3703   3705     4  180.0000771  4.6024000  2
   3710   3714   3713   3715     4  180.0000771  4.6024000  2
   3731   3735   3734   3736     4  180.0000771  4.6024000  2
   3741   3745   3744   3746     4  180.0000771  4.6024000  2
   3762   3766   3765   3767     4  180.0000771  4.6024000  2
   3772   3776   3775   3777     4  180.0000771  4.6024000  2
   3793   3797   3796   3798     4  180.0000771  4.6024000  2
   3803   3807   3806   3808     4  180.0000771  4.6024000  2
   3824   3828   3827   3829     4  180.0000771  4.6024000  2
   3834   3838   3837   3839     4  180.0000771  4.6024000  2
   3855   3859   3858   3860     4  180.0000771  4.6024000  2
   3865   3869   3868   3870     4  180.0000771  4.6024000  2
   3886   3890   3889   3891     4  180.0000771  4.6024000  2
   3896   3900   3899   3901     4  180.0000771  4.6024000  2
   3917   3921   3920   3922     4  180.0000771  4.6024000  2
   3927   3931   3930   3932     4  180.0000771  4.6024000  2
   3948   3952   3951   3953     4  180.0000771  4.6024000  2
   3958   3962   3961   3963     4  180.0000771  4.6024000  2
   3979   3983   3982   3984     4  180.0000771  4.6024000  2
   3989   3993   3992   3994     4  180.0000771  4.6024000  2
   4010   4014   4013   4015     4  180.0000771  4.6024000  2
   4020   4024   4023   4025     4  180.0000771  4.6024000  2
   4041   4045   4044   4046     4  180.0000771  4.6024000  2
   4051   4055   4054   4056     4  180.0000771  4.6024000  2
   4072   4076   4075   4077     4  180.0000771  4.6024000  2
   4082   4086   4085   4087     4  180.0000771  4.6024000  2
   4103   4107   4106   4108     4  180.0000771  4.6024000  2
   4113   4117   4116   4118     4  180.0000771  4.6024000  2
   4134   4138   4137   4139     4  180.0000771  4.6024000  2
   4144   4148   4147   4149     4  180.0000771  4.6024000  2
   4165   4169   4168   4170     4  180.0000771  4.6024000  2
   4175   4179   4178   4180     4  180.0000771  4.6024000  2
   4196   4200   4199   4201     4  180.0000771  4.6024000  2
   4206   4210   4209   4211     4  180.0000771  4.6024000  2
   4227   4231   4230   4232     4  180.0000771  4.6024000  2
   4237   4241   4240   4242     4  180.0000771  4.6024000  2
   4258   4262   4261   4263     4  180.0000771  4.6024000  2
   4268   4272   4271   4273     4  180.0000771  4.6024000  2
   4289   4293   4292   4294     4  180.0000771  4.6024000  2
   4299   4303   4302   4304     4  180.0000771  4.6024000  2
   4320   4324   4323   4325     4  180.0000771  4.6024000  2
   4330   4334   4333   4335     4  180.0000771  4.6024000  2
   4351   4355   4354   4356     4  180.0000771  4.6024000  2
   4361   4365   4364   4366     4  180.0000771  4.6024000  2
   4382   4386   4385   4387     4  180.0000771  4.6024000  2
   4392   4396   4395   4397     4  180.0000771  4.6024000  2
   4413   4417   4416   4418     4  180.0000771  4.6024000  2
   4423   4427   4426   4428     4  180.0000771  4.6024000  2
   4444   4448   4447   4449     4  180.0000771  4.6024000  2
   4454   4458   4457   4459     4  180.0000771  4.6024000  2
   4475   4479   4478   4480     4  180.0000771  4.6024000  2
   4485   4489   4488   4490     4  180.0000771  4.6024000  2
   4506   4510   4509   4511     4  180.0000771  4.6024000  2
   4516   4520   4519   4521     4  180.0000771  4.6024000  2
   4537   4541   4540   4542     4  180.0000771  4.6024000  2
   4547   4551   4550   4552     4  180.0000771  4.6024000  2
   4568   4572   4571   4573     4  180.0000771  4.6024000  2
   4578   4582   4581   4583     4  180.0000771  4.6024000  2
   4599   4603   4602   4604     4  180.0000771  4.6024000  2
   4609   4613   4612   4614     4  180.0000771  4.6024000  2
   4630   4634   4633   4635     4  180.0000771  4.6024000  2
   4640   4644   4643   4645     4  180.0000771  4.6024000  2
   4661   4665   4664   4666     4  180.0000771  4.6024000  2
   4671   4675   4674   4676     4  180.0000771  4.6024000  2
   4692   4696   4695   4697     4  180.0000771  4.6024000  2
   4702   4706   4705   4707     4  180.0000771  4.6024000  2
   4723   4727   4726   4728     4  180.0000771  4.6024000  2
   4733   4737   4736   4738     4  180.0000771  4.6024000  2
   4754   4758   4757   4759     4  180.0000771  4.6024000  2
   4764   4768   4767   4769     4  180.0000771  4.6024000  2
   4785   4789   4788   4790     4  180.0000771  4.6024000  2
   4795   4799   4798   4800     4  180.0000771  4.6024000  2
   4816   4820   4819   4821     4  180.0000771  4.6024000  2
   4826   4830   4829   4831     4  180.0000771  4.6024000  2
   4847   4851   4850   4852     4  180.0000771  4.6024000  2
   4857   4861   4860   4862     4  180.0000771  4.6024000  2
   4878   4882   4881   4883     4  180.0000771  4.6024000  2
   4888   4892   4891   4893     4  180.0000771  4.6024000  2
   4909   4913   4912   4914     4  180.0000771  4.6024000  2
   4919   4923   4922   4924     4  180.0000771  4.6024000  2
   4940   4944   4943   4945     4  180.0000771  4.6024000  2
   4950   4954   4953   4955     4  180.0000771  4.6024000  2
   4971   4975   4974   4976     4  180.0000771  4.6024000  2
   4981   4985   4984   4986     4  180.0000771  4.6024000  2
   5002   5006   5005   5007     4  180.0000771  4.6024000  2
   5012   5016   5015   5017     4  180.0000771  4.6024000  2
   5033   5037   5036   5038     4  180.0000771  4.6024000  2
   5043   5047   5046   5048     4  180.0000771  4.6024000  2
   5064   5068   5067   5069     4  180.0000771  4.6024000  2
   5074   5078   5077   5079     4  180.0000771  4.6024000  2
   5095   5099   5098   5100     4  180.0000771  4.6024000  2
   5105   5109   5108   5110     4  180.0000771  4.6024000  2
   5126   5130   5129   5131     4  180.0000771  4.6024000  2
   5136   5140   5139   5141     4  180.0000771  4.6024000  2
   5157   5161   5160   5162     4  180.0000771  4.6024000  2
   5167   5171   5170   5172     4  180.0000771  4.6024000  2
   5188   5192   5191   5193     4  180.0000771  4.6024000  2
   5198   5202   5201   5203     4  180.0000771  4.6024000  2
   5219   5223   5222   5224     4  180.0000771  4.6024000  2
   5229   5233   5232   5234     4  180.0000771  4.6024000  2
   5250   5254   5253   5255     4  180.0000771  4.6024000  2
   5260   5264   5263   5265     4  180.0000771  4.6024000  2
   5281   5285   5284   5286     4  180.0000771  4.6024000  2
   5291   5295   5294   5296     4  180.0000771  4.6024000  2
   5312   5316   5315   5317     4  180.0000771  4.6024000  2
   5322   5326   5325   5327     4  180.0000771  4.6024000  2
   5343   5347   5346   5348     4  180.0000771  4.6024000  2
   5353   5357   5356   5358     4  180.0000771  4.6024000  2
   5374   5378   5377   5379     4  180.0000771  4.6024000  2
   5384   5388   5387   5389     4  180.0000771  4.6024000  2
   5405   5409   5408   5410     4  180.0000771  4.6024000  2
   5415   5419   5418   5420     4  180.0000771  4.6024000  2
   5436   5440   5439   5441     4  180.0000771  4.6024000  2
   5446   5450   5449   5451     4  180.0000771  4.6024000  2
   5467   5471   5470   5472     4  180.0000771  4.6024000  2
   5477   5481   5480   5482     4  180.0000771  4.6024000  2
   5498   5502   5501   5503     4  180.0000771  4.6024000  2
   5508   5512   5511   5513     4  180.0000771  4.6024000  2
   5529   5533   5532   5534     4  180.0000771  4.6024000  2
   5539   5543   5542   5544     4  180.0000771  4.6024000  2
   5560   5564   5563   5565     4  180.0000771  4.6024000  2
   5570   5574   5573   5575     4  180.0000771  4.6024000  2
   5591   5595   5594   5596     4  180.0000771  4.6024000  2
   5601   5605   5604   5606     4  180.0000771  4.6024000  2
   5622   5626   5625   5627     4  180.0000771  4.6024000  2
   5632   5636   5635   5637     4  180.0000771  4.6024000  2
   5653   5657   5656   5658     4  180.0000771  4.6024000  2
   5663   5667   5666   5668     4  180.0000771  4.6024000  2
   5684   5688   5687   5689     4  180.0000771  4.6024000  2
   5694   5698   5697   5699     4  180.0000771  4.6024000  2
      1      2     14     15     1  0.0000000  0.6508444  3
      1      2     14     16     1  0.0000000  0.6508444  3
      1      5     17     18     1  0.0000000  0.6508444  3
      1      5     17     19     1  0.0000000  0.6508444  3
      1      8     11     12     1  0.0000000  0.6508444  3
      1      8     11     13     1  0.0000000  0.6508444  3
      2      1      5      6     1  0.0000000  1.2552000  3
      2      1      5      7     1  0.0000000  1.2552000  3
      2      1      8      9     1  0.0000000  1.2552000  3
      2      1      8     10     1  0.0000000  1.2552000  3
      2     14     26     27     1  0.0000000  0.6508444  3
      2     14     26     28     1  0.0000000  0.6508444  3
      5      1      2      3     1  0.0000000  1.2552000  3
      8      1      2      3     1  0.0000000  1.2552000  3
      3      2     14     26     1  0.0000000  0.6508444  3
      3      2     14     15     1  0.0000000  0.6508444  3
      3      2     14     16     1  0.0000000  0.6508444  3
      5      1      2      4     1  0.0000000  1.2552000  3
      8      1      2      4     1  0.0000000  1.2552000  3
      4      2     14     26     1  0.0000000  0.6508444  3
      4      2     14     15     1  0.0000000  0.6508444  3
      4      2     14     16     1  0.0000000  0.6508444  3
      5      1      8      9     1  0.0000000  1.2552000  3
      5      1      8     10     1  0.0000000  1.2552000  3
      5     17     20     21     1  0.0000000  0.6508444  3
      5     17     20     22     1  0.0000000  0.6508444  3
      8      1      5      6     1  0.0000000  1.2552000  3
      6      5     17     20     1  0.0000000  0.6508444  3
      6      5     17     18     1  0.0000000  0.6508444  3
      6      5     17     19     1  0.0000000  0.6508444  3
      8      1      5      7     1  0.0000000  1.2552000  3
      7      5     17     20     1  0.0000000  0.6508444  3
      7      5     17     18     1  0.0000000  0.6508444  3
      7      5     17     19     1  0.0000000  0.6508444  3
      8     11     23     24     1  0.0000000  0.6508444  3
      8     11     23     25     1  0.0000000  0.6508444  3
      9      8     11     23     1  0.0000000  0.6508444  3
      9      8     11     12     1  0.0000000  0.6508444  3
      9      8     11     13     1  0.0000000  0.6508444  3
     10      8     11     23     1  0.0000000  0.6508444  3
     10      8     11     12     1  0.0000000  0.6508444  3
     10      8     11     13     1  0.0000000  0.6508444  3
     12     11     23     86     1  0.0000000  1.0460000  1
     12     11     23     86     1  0.0000000  0.0000000  3
     12     11     23     24     1  0.0000000  0.6508444  3
     12     11     23     25     1  0.0000000  0.6508444  3
     13     11     23     86     1  0.0000000  1.0460000  1
     13     11     23     86     1  0.0000000  0.0000000  3
     13     11     23     24     1  0.0000000  0.6508444  3
     13     11     23     25     1  0.0000000  0.6508444  3
     15     14     26    115     1  0.0000000  1.0460000  1
     15     14     26    115     1  0.0000000  0.0000000  3
     15     14     26     27     1  0.0000000  0.6508444  3
     15     14     26     28     1  0.0000000  0.6508444  3
     16     14     26    115     1  0.0000000  1.0460000  1
     16     14     26    115     1  0.0000000  0.0000000  3
     16     14     26     27     1  0.0000000  0.6508444  3
     16     14     26     28     1  0.0000000  0.6508444  3
     18     17     20     57     1  0.0000000  1.0460000  1
     18     17     20     57     1  0.0000000  0.0000000  3
     18     17     20     21     1  0.0000000  0.6508444  3
     18     17     20     22     1  0.0000000  0.6508444  3
     19     17     20     57     1  0.0000000  1.0460000  1
     19     17     20     57     1  0.0000000  0.0000000  3
     19     17     20     21     1  0.0000000  0.6508444  3
     19     17     20     22     1  0.0000000  0.6508444  3
     20     57     48     49     1  0.0000000  1.6038667  3
     20     57     48     50     1  0.0000000  1.6038667  3
     21     20     57     48     1  0.0000000  1.6038667  3
     22     20     57     48     1  0.0000000  1.6038667  3
     23     86     77     78     1  0.0000000  1.6038667  3
     23     86     77     79     1  0.0000000  1.6038667  3
     24     23     86     77     1  0.0000000  1.6038667  3
     25     23     86     77     1  0.0000000  1.6038667  3
     26    115    106    107     1  0.0000000  1.6038667  3
     26    115    106    108     1  0.0000000  1.6038667  3
     27     26    115    106     1  0.0000000  1.6038667  3
     28     26    115    106     1  0.0000000  1.6038667  3
     29     30     42     43     1  0.0000000  0.6508444  3
     29     30     42     44     1  0.0000000  0.6508444  3
     29     33     45     46     1  0.0000000  0.6508444  3
     29     33     45     47     1  0.0000000  0.6508444  3
     29     36     39     40     1  0.0000000  0.6508444  3
     29     36     39     41     1  0.0000000  0.6508444  3
     30     29     33     34     1  0.0000000  1.2552000  3
     30     29     33     35     1  0.0000000  1.2552000  3
     30     29     36     37     1  0.0000000  1.2552000  3
     30     29     36     38     1  0.0000000  1.2552000  3
     30     42     54     55     1  0.0000000  0.6508444  3
     30     42     54     56     1  0.0000000  0.6508444  3
     31     30     29     33     1  0.0000000  1.2552000  3
     31     30     29     36     1  0.0000000  1.2552000  3
     31     30     42     54     1  0.0000000  0.6508444  3
     31     30     42     43     1  0.0000000  0.6508444  3
     31     30     42     44     1  0.0000000  0.6508444  3
     32     30     29     33     1  0.0000000  1.2552000  3
     32     30     29     36     1  0.0000000  1.2552000  3
     32     30     42     54     1  0.0000000  0.6508444  3
     32     30     42     43     1  0.0000000  0.6508444  3
     32     30     42     44     1  0.0000000  0.6508444  3
     33     29     36     37     1  0.0000000  1.2552000  3
     33     29     36     38     1  0.0000000  1.2552000  3
     33     45     51     52     1  0.0000000  0.6508444  3
     33     45     51     53     1  0.0000000  0.6508444  3
     34     33     29     36     1  0.0000000  1.2552000  3
     34     33     45     51     1  0.0000000  0.6508444  3
     34     33     45     46     1  0.0000000  0.6508444  3
     34     33     45     47     1  0.0000000  0.6508444  3
     35     33     29     36     1  0.0000000  1.2552000  3
     35     33     45     51     1  0.0000000  0.6508444  3
     35     33     45     46     1  0.0000000  0.6508444  3
     35     33     45     47     1  0.0000000  0.6508444  3
     36     39     48     49     1  0.0000000  0.6508444  3
     36     39     48     50     1  0.0000000  0.6508444  3
     37     36     39     48     1  0.0000000  0.6508444  3
     37     36     39     40     1  0.0000000  0.6508444  3
     37     36     39     41     1  0.0000000  0.6508444  3
     38     36     39     48     1  0.0000000  0.6508444  3
     38     36     39     40     1  0.0000000  0.6508444  3
     38     36     39     41     1  0.0000000  0.6508444  3
     40     39     48     57     1  0.0000000  1.0460000  1
     40     39     48     57     1  0.0000000  0.0000000  3
     40     39     48     49     1  0.0000000  0.6508444  3
     40     39     48     50     1  0.0000000  0.6508444  3
     41     39     48     57     1  0.0000000  1.0460000  1
     41     39     48     57     1  0.0000000  0.0000000  3
     41     39     48     49     1  0.0000000  0.6508444  3
     41     39     48     50     1  0.0000000  0.6508444  3
     43     42     54    173     1  0.0000000  1.0460000  1
     43     42     54    173     1  0.0000000  0.0000000  3
     43     42     54     55     1  0.0000000  0.6508444  3
     43     42     54     56     1  0.0000000  0.6508444  3
     44     42     54    173     1  0.0000000  1.0460000  1
     44     42     54    173     1  0.0000000  0.0000000  3
     44     42     54     55     1  0.0000000  0.6508444  3
     44     42     54     56     1  0.0000000  0.6508444  3
     46     45     51    144     1  0.0000000  1.0460000  1
     46     45     51    144     1  0.0000000  0.0000000  3
     46     45     51     52     1  0.0000000  0.6508444  3
     46     45     51     53     1  0.0000000  0.6508444  3
     47     45     51    144     1  0.0000000  1.0460000  1
     47     45     51    144     1  0.0000000  0.0000000  3
     47     45     51     52     1  0.0000000  0.6508444  3
     47     45     51     53     1  0.0000000  0.6508444  3
     51    144    135    136     1  0.0000000  1.6038667  3
     51    144    135    137     1  0.0000000  1.6038667  3
     52     51    144    135     1  0.0000000  1.6038667  3
     53     51    144    135     1  0.0000000  1.6038667  3
     54    173    164    165     1  0.0000000  1.6038667  3
     54    173    164    166     1  0.0000000  1.6038667  3
     55     54    173    164     1  0.0000000  1.6038667  3
     56     54    173    164     1  0.0000000  1.6038667  3
     58     59     71     72     1  0.0000000  0.6508444  3
     58     59     71     73     1  0.0000000  0.6508444  3
     58     62     74     75     1  0.0000000  0.6508444  3
     58     62     74     76     1  0.0000000  0.6508444  3
     58     65     68     69     1  0.0000000  0.6508444  3
     58     65     68     70     1  0.0000000  0.6508444  3
     59     58     62     63     1  0.0000000  1.2552000  3
     59     58     62     64     1  0.0000000  1.2552000  3
     59     58     65     66     1  0.0000000  1.2552000  3
     59     58     65     67     1  0.0000000  1.2552000  3
     59     71     83     84     1  0.0000000  0.6508444  3
     59     71     83     85     1  0.0000000  0.6508444  3
     60     59     58     62     1  0.0000000  1.2552000  3
     60     59     58     65     1  0.0000000  1.2552000  3
     60     59     71     83     1  0.0000000  0.6508444  3
     60     59     71     72     1  0.0000000  0.6508444  3
     60     59     71     73     1  0.0000000  0.6508444  3
     61     59     58     62     1  0.0000000  1.2552000  3
     61     59     58     65     1  0.0000000  1.2552000  3
     61     59     71     83     1  0.0000000  0.6508444  3
     61     59     71     72     1  0.0000000  0.6508444  3
     61     59     71     73     1  0.0000000  0.6508444  3
     62     58     65     66     1  0.0000000  1.2552000  3
     62     58     65     67     1  0.0000000  1.2552000  3
     62     74     80     81     1  0.0000000  0.6508444  3
     62     74     80     82     1  0.0000000  0.6508444  3
     63     62     58     65     1  0.0000000  1.2552000  3
     63     62     74     80     1  0.0000000  0.6508444  3
     63     62     74     75     1  0.0000000  0.6508444  3
     63     62     74     76     1  0.0000000  0.6508444  3
     64     62     58     65     1  0.0000000  1.2552000  3
     64     62     74     80     1  0.0000000  0.6508444  3
     64     62     74     75     1  0.0000000  0.6508444  3
     64     62     74     76     1  0.0000000  0.6508444  3
     65     68     77     78     1  0.0000000  0.6508444  3
     65     68     77     79     1  0.0000000  0.6508444  3
     66     65     68     77     1  0.0000000  0.6508444  3
     66     65     68     69     1  0.0000000  0.6508444  3
     66     65     68     70     1  0.0000000  0.6508444  3
     67     65     68     77     1  0.0000000  0.6508444  3
     67     65     68     69     1  0.0000000  0.6508444  3
     67     65     68     70     1  0.0000000  0.6508444  3
     69     68     77     86     1  0.0000000  1.0460000  1
     69     68     77     86     1  0.0000000  0.0000000  3
     69     68     77     78     1  0.0000000  0.6508444  3
     69     68     77     79     1  0.0000000  0.6508444  3
     70     68     77     86     1  0.0000000  1.0460000  1
     70     68     77     86     1  0.0000000  0.0000000  3
     70     68     77     78     1  0.0000000  0.6508444  3
     70     68     77     79     1  0.0000000  0.6508444  3
     72     71     83    231     1  0.0000000  1.0460000  1
     72     71     83    231     1  0.0000000  0.0000000  3
     72     71     83     84     1  0.0000000  0.6508444  3
     72     71     83     85     1  0.0000000  0.6508444  3
     73     71     83    231     1  0.0000000  1.0460000  1
     73     71     83    231     1  0.0000000  0.0000000  3
     73     71     83     84     1  0.0000000  0.6508444  3
     73     71     83     85     1  0.0000000  0.6508444  3
     75     74     80    202     1  0.0000000  1.0460000  1
     75     74     80    202     1  0.0000000  0.0000000  3
     75     74     80     81     1  0.0000000  0.6508444  3
     75     74     80     82     1  0.0000000  0.6508444  3
     76     74     80    202     1  0.0000000  1.0460000  1
     76     74     80    202     1  0.0000000  0.0000000  3
     76     74     80     81     1  0.0000000  0.6508444  3
     76     74     80     82     1  0.0000000  0.6508444  3
     80    202    193    194     1  0.0000000  1.6038667  3
     80    202    193    195     1  0.0000000  1.6038667  3
     81     80    202    193     1  0.0000000  1.6038667  3
     82     80    202    193     1  0.0000000  1.6038667  3
     83    231    222    223     1  0.0000000  1.6038667  3
     83    231    222    224     1  0.0000000  1.6038667  3
     84     83    231    222     1  0.0000000  1.6038667  3
     85     83    231    222     1  0.0000000  1.6038667  3
     87     88    100    101     1  0.0000000  0.6508444  3
     87     88    100    102     1  0.0000000  0.6508444  3
     87     91    103    104     1  0.0000000  0.6508444  3
     87     91    103    105     1  0.0000000  0.6508444  3
     87     94     97     98     1  0.0000000  0.6508444  3
     87     94     97     99     1  0.0000000  0.6508444  3
     88     87     91     92     1  0.0000000  1.2552000  3
     88     87     91     93     1  0.0000000  1.2552000  3
     88     87     94     95     1  0.0000000  1.2552000  3
     88     87     94     96     1  0.0000000  1.2552000  3
     88    100    112    113     1  0.0000000  0.6508444  3
     88    100    112    114     1  0.0000000  0.6508444  3
     89     88     87     91     1  0.0000000  1.2552000  3
     89     88     87     94     1  0.0000000  1.2552000  3
     89     88    100    112     1  0.0000000  0.6508444  3
     89     88    100    101     1  0.0000000  0.6508444  3
     89     88    100    102     1  0.0000000  0.6508444  3
     90     88     87     91     1  0.0000000  1.2552000  3
     90     88     87     94     1  0.0000000  1.2552000  3
     90     88    100    112     1  0.0000000  0.6508444  3
     90     88    100    101     1  0.0000000  0.6508444  3
     90     88    100    102     1  0.0000000  0.6508444  3
     91     87     94     95     1  0.0000000  1.2552000  3
     91     87     94     96     1  0.0000000  1.2552000  3
     91    103    109    110     1  0.0000000  0.6508444  3
     91    103    109    111     1  0.0000000  0.6508444  3
     92     91     87     94     1  0.0000000  1.2552000  3
     92     91    103    109     1  0.0000000  0.6508444  3
     92     91    103    104     1  0.0000000  0.6508444  3
     92     91    103    105     1  0.0000000  0.6508444  3
     93     91     87     94     1  0.0000000  1.2552000  3
     93     91    103    109     1  0.0000000  0.6508444  3
     93     91    103    104     1  0.0000000  0.6508444  3
     93     91    103    105     1  0.0000000  0.6508444  3
     94     97    106    107     1  0.0000000  0.6508444  3
     94     97    106    108     1  0.0000000  0.6508444  3
     95     94     97    106     1  0.0000000  0.6508444  3
     95     94     97     98     1  0.0000000  0.6508444  3
     95     94     97     99     1  0.0000000  0.6508444  3
     96     94     97    106     1  0.0000000  0.6508444  3
     96     94     97     98     1  0.0000000  0.6508444  3
     96     94     97     99     1  0.0000000  0.6508444  3
     98     97    106    115     1  0.0000000  1.0460000  1
     98     97    106    115     1  0.0000000  0.0000000  3
     98     97    106    107     1  0.0000000  0.6508444  3
     98     97    106    108     1  0.0000000  0.6508444  3
     99     97    106    115     1  0.0000000  1.0460000  1
     99     97    106    115     1  0.0000000  0.0000000  3
     99     97    106    107     1  0.0000000  0.6508444  3
     99     97    106    108     1  0.0000000  0.6508444  3
    101    100    112    289     1  0.0000000  1.0460000  1
    101    100    112    289     1  0.0000000  0.0000000  3
    101    100    112    113     1  0.0000000  0.6508444  3
    101    100    112    114     1  0.0000000  0.6508444  3
    102    100    112    289     1  0.0000000  1.0460000  1
    102    100    112    289     1  0.0000000  0.0000000  3
    102    100    112    113     1  0.0000000  0.6508444  3
    102    100    112    114     1  0.0000000  0.6508444  3
    104    103    109    260     1  0.0000000  1.0460000  1
    104    103    109    260     1  0.0000000  0.0000000  3
    104    103    109    110     1  0.0000000  0.6508444  3
    104    103    109    111     1  0.0000000  0.6508444  3
    105    103    109    260     1  0.0000000  1.0460000  1
    105    103    109    260     1  0.0000000  0.0000000  3
    105    103    109    110     1  0.0000000  0.6508444  3
    105    103    109    111     1  0.0000000  0.6508444  3
    109    260    251    252     1  0.0000000  1.6038667  3
    109    260    251    253     1  0.0000000  1.6038667  3
    110    109    260    251     1  0.0000000  1.6038667  3
    111    109    260    251     1  0.0000000  1.6038667  3
    112    289    280    281     1  0.0000000  1.6038667  3
    112    289    280    282     1  0.0000000  1.6038667  3
    113    112    289    280     1  0.0000000  1.6038667  3
    114    112    289    280     1  0.0000000  1.6038667  3
    116    117    129    130     1  0.0000000  0.6508444  3
    116    117    129    131     1  0.0000000  0.6508444  3
    116    120    132    133     1  0.0000000  0.6508444  3
    116    120    132    134     1  0.0000000  0.6508444  3
    116    123    126    127     1  0.0000000  0.6508444  3
    116    123    126    128     1  0.0000000  0.6508444  3
    117    116    120    121     1  0.0000000  1.2552000  3
    117    116    120    122     1  0.0000000  1.2552000  3
    117    116    123    124     1  0.0000000  1.2552000  3
    117    116    123    125     1  0.0000000  1.2552000  3
    117    129    141    142     1  0.0000000  0.6508444  3
    117    129    141    143     1  0.0000000  0.6508444  3
    118    117    116    120     1  0.0000000  1.2552000  3
    118    117    116    123     1  0.0000000  1.2552000  3
    118    117    129    141     1  0.0000000  0.6508444  3
    118    117    129    130     1  0.0000000  0.6508444  3
    118    117    129    131     1  0.0000000  0.6508444  3
    119    117    116    120     1  0.0000000  1.2552000  3
    119    117    116    123     1  0.0000000  1.2552000  3
    119    117    129    141     1  0.0000000  0.6508444  3
    119    117    129    130     1  0.0000000  0.6508444  3
    119    117    129    131     1  0.0000000  0.6508444  3
    120    116    123    124     1  0.0000000  1.2552000  3
    120    116    123    125     1  0.0000000  1.2552000  3
    120    132    138    139     1  0.0000000  0.6508444  3
    120    132    138    140     1  0.0000000  0.6508444  3
    121    120    116    123     1  0.0000000  1.2552000  3
    121    120    132    138     1  0.0000000  0.6508444  3
    121    120    132    133     1  0.0000000  0.6508444  3
    121    120    132    134     1  0.0000000  0.6508444  3
    122    120    116    123     1  0.0000000  1.2552000  3
    122    120    132    138     1  0.0000000  0.6508444  3
    122    120    132    133     1  0.0000000  0.6508444  3
    122    120    132    134     1  0.0000000  0.6508444  3
    123    126    135    136     1  0.0000000  0.6508444  3
    123    126    135    137     1  0.0000000  0.6508444  3
    124    123    126    135     1  0.0000000  0.6508444  3
    124    123    126    127     1  0.0000000  0.6508444  3
    124    123    126    128     1  0.0000000  0.6508444  3
    125    123    126    135     1  0.0000000  0.6508444  3
    125    123    126    127     1  0.0000000  0.6508444  3
    125    123    126    128     1  0.0000000  0.6508444  3
    127    126    135    144     1  0.0000000  1.0460000  1
    127    126    135    144     1  0.0000000  0.0000000  3
    127    126    135    136     1  0.0000000  0.6508444  3
    127    126    135    137     1  0.0000000  0.6508444  3
    128    126    135    144     1  0.0000000  1.0460000  1
    128    126    135    144     1  0.0000000  0.0000000  3
    128    126    135    136     1  0.0000000  0.6508444  3
    128    126    135    137     1  0.0000000  0.6508444  3
    130    129    141    347     1  0.0000000  1.0460000  1
    130    129    141    347     1  0.0000000  0.0000000  3
    130    129    141    142     1  0.0000000  0.6508444  3
    130    129    141    143     1  0.0000000  0.6508444  3
    131    129    141    347     1  0.0000000  1.0460000  1
    131    129    141    347     1  0.0000000  0.0000000  3
    131    129    141    142     1  0.0000000  0.6508444  3
    131    129    141    143     1  0.0000000  0.6508444  3
    133    132    138    318     1  0.0000000  1.0460000  1
    133    132    138    318     1  0.0000000  0.0000000  3
    133    132    138    139     1  0.0000000  0.6508444  3
    133    132    138    140     1  0.0000000  0.6508444  3
    134    132    138    318     1  0.0000000  1.0460000  1
    134    132    138    318     1  0.0000000  0.0000000  3
    134    132    138    139     1  0.0000000  0.6508444  3
    134    132    138    140     1  0.0000000  0.6508444  3
    138    318    309    310     1  0.0000000  1.6038667  3
    138    318    309    311     1  0.0000000  1.6038667  3
    139    138    318    309     1  0.0000000  1.6038667  3
    140    138    318    309     1  0.0000000  1.6038667  3
    141    347    338    339     1  0.0000000  1.6038667  3
    141    347    338    340     1  0.0000000  1.6038667  3
    142    141    347    338     1  0.0000000  1.6038667  3
    143    141    347    338     1  0.0000000  1.6038667  3
    145    146    158    159     1  0.0000000  0.6508444  3
    145    146    158    160     1  0.0000000  0.6508444  3
    145    149    161    162     1  0.0000000  0.6508444  3
    145    149    161    163     1  0.0000000  0.6508444  3
    145    152    155    156     1  0.0000000  0.6508444  3
    145    152    155    157     1  0.0000000  0.6508444  3
    146    145    149    150     1  0.0000000  1.2552000  3
    146    145    149    151     1  0.0000000  1.2552000  3
    146    145    152    153     1  0.0000000  1.2552000  3
    146    145    152    154     1  0.0000000  1.2552000  3
    146    158    170    171     1  0.0000000  0.6508444  3
    146    158    170    172     1  0.0000000  0.6508444  3
    147    146    145    149     1  0.0000000  1.2552000  3
    147    146    145    152     1  0.0000000  1.2552000  3
    147    146    158    170     1  0.0000000  0.6508444  3
    147    146    158    159     1  0.0000000  0.6508444  3
    147    146    158    160     1  0.0000000  0.6508444  3
    148    146    145    149     1  0.0000000  1.2552000  3
    148    146    145    152     1  0.0000000  1.2552000  3
    148    146    158    170     1  0.0000000  0.6508444  3
    148    146    158    159     1  0.0000000  0.6508444  3
    148    146    158    160     1  0.0000000  0.6508444  3
    149    145    152    153     1  0.0000000  1.2552000  3
    149    145    152    154     1  0.0000000  1.2552000  3
    149    161    167    168     1  0.0000000  0.6508444  3
    149    161    167    169     1  0.0000000  0.6508444  3
    150    149    145    152     1  0.0000000  1.2552000  3
    150    149    161    167     1  0.0000000  0.6508444  3
    150    149    161    162     1  0.0000000  0.6508444  3
    150    149    161    163     1  0.0000000  0.6508444  3
    151    149    145    152     1  0.0000000  1.2552000  3
    151    149    161    167     1  0.0000000  0.6508444  3
    151    149    161    162     1  0.0000000  0.6508444  3
    151    149    161    163     1  0.0000000  0.6508444  3
    152    155    164    165     1  0.0000000  0.6508444  3
    152    155    164    166     1  0.0000000  0.6508444  3
    153    152    155    164     1  0.0000000  0.6508444  3
    153    152    155    156     1  0.0000000  0.6508444  3
    153    152    155    157     1  0.0000000  0.6508444  3
    154    152    155    164     1  0.0000000  0.6508444  3
    154    152    155    156     1  0.0000000  0.6508444  3
    154    152    155    157     1  0.0000000  0.6508444  3
    156    155    164    173     1  0.0000000  1.0460000  1
    156    155    164    173     1  0.0000000  0.0000000  3
    156    155    164    165     1  0.0000000  0.6508444  3
    156    155    164    166     1  0.0000000  0.6508444  3
    157    155    164    173     1  0.0000000  1.0460000  1
    157    155    164    173     1  0.0000000  0.0000000  3
    157    155    164    165     1  0.0000000  0.6508444  3
    157    155    164    166     1  0.0000000  0.6508444  3
    159    158    170    405     1  0.0000000  1.0460000  1
    159    158    170    405     1  0.0000000  0.0000000  3
    159    158    170    171     1  0.0000000  0.6508444  3
    159    158    170    172     1  0.0000000  0.6508444  3
    160    158    170    405     1  0.0000000  1.0460000  1
    160    158    170    405     1  0.0000000  0.0000000  3
    160    158    170    171     1  0.0000000  0.6508444  3
    160    158    170    172     1  0.0000000  0.6508444  3
    162    161    167    376     1  0.0000000  1.0460000  1
    162    161    167    376     1  0.0000000  0.0000000  3
    162    161    167    168     1  0.0000000  0.6508444  3
    162    161    167    169     1  0.0000000  0.6508444  3
    163    161    167    376     1  0.0000000  1.0460000  1
    163    161    167    376     1  0.0000000  0.0000000  3
    163    161    167    168     1  0.0000000  0.6508444  3
    163    161    167    169     1  0.0000000  0.6508444  3
    167    376    367    368     1  0.0000000  1.6038667  3
    167    376    367    369     1  0.0000000  1.6038667  3
    168    167    376    367     1  0.0000000  1.6038667  3
    169    167    376    367     1  0.0000000  1.6038667  3
    170    405    396    397     1  0.0000000  1.6038667  3
    170    405    396    398     1  0.0000000  1.6038667  3
    171    170    405    396     1  0.0000000  1.6038667  3
    172    170    405    396     1  0.0000000  1.6038667  3
    174    175    187    188     1  0.0000000  0.6508444  3
    174    175    187    189     1  0.0000000  0.6508444  3
    174    178    190    191     1  0.0000000  0.6508444  3
    174    178    190    192     1  0.0000000  0.6508444  3
    174    181    184    185     1  0.0000000  0.6508444  3
    174    181    184    186     1  0.0000000  0.6508444  3
    175    174    178    179     1  0.0000000  1.2552000  3
    175    174    178    180     1  0.0000000  1.2552000  3
    175    174    181    182     1  0.0000000  1.2552000  3
    175    174    181    183     1  0.0000000  1.2552000  3
    175    187    199    200     1  0.0000000  0.6508444  3
    175    187    199    201     1  0.0000000  0.6508444  3
    176    175    174    178     1  0.0000000  1.2552000  3
    176    175    174    181     1  0.0000000  1.2552000  3
    176    175    187    199     1  0.0000000  0.6508444  3
    176    175    187    188     1  0.0000000  0.6508444  3
    176    175    187    189     1  0.0000000  0.6508444  3
    177    175    174    178     1  0.0000000  1.2552000  3
    177    175    174    181     1  0.0000000  1.2552000  3
    177    175    187    199     1  0.0000000  0.6508444  3
    177    175    187    188     1  0.0000000  0.6508444  3
    177    175    187    189     1  0.0000000  0.6508444  3
    178    174    181    182     1  0.0000000  1.2552000  3
    178    174    181    183     1  0.0000000  1.2552000  3
    178    190    196    197     1  0.0000000  0.6508444  3
    178    190    196    198     1  0.0000000  0.6508444  3
    179    178    174    181     1  0.0000000  1.2552000  3
    179    178    190    196     1  0.0000000  0.6508444  3
    179    178    190    191     1  0.0000000  0.6508444  3
    179    178    190    192     1  0.0000000  0.6508444  3
    180    178    174    181     1  0.0000000  1.2552000  3
    180    178    190    196     1  0.0000000  0.6508444  3
    180    178    190    191     1  0.0000000  0.6508444  3
    180    178    190    192     1  0.0000000  0.6508444  3
    181    184    193    194     1  0.0000000  0.6508444  3
    181    184    193    195     1  0.0000000  0.6508444  3
    182    181    184    193     1  0.0000000  0.6508444  3
    182    181    184    185     1  0.0000000  0.6508444  3
    182    181    184    186     1  0.0000000  0.6508444  3
    183    181    184    193     1  0.0000000  0.6508444  3
    183    181    184    185     1  0.0000000  0.6508444  3
    183    181    184    186     1  0.0000000  0.6508444  3
    185    184    193    202     1  0.0000000  1.0460000  1
    185    184    193    202     1  0.0000000  0.0000000  3
    185    184    193    194     1  0.0000000  0.6508444  3
    185    184    193    195     1  0.0000000  0.6508444  3
    186    184    193    202     1  0.0000000  1.0460000  1
    186    184    193    202     1  0.0000000  0.0000000  3
    186    184    193    194     1  0.0000000  0.6508444  3
    186    184    193    195     1  0.0000000  0.6508444  3
    188    187    199    463     1  0.0000000  1.0460000  1
    188    187    199    463     1  0.0000000  0.0000000  3
    188    187    199    200     1  0.0000000  0.6508444  3
    188    187    199    201     1  0.0000000  0.6508444  3
    189    187    199    463     1  0.0000000  1.0460000  1
    189    187    199    463     1  0.0000000  0.0000000  3
    189    187    199    200     1  0.0000000  0.6508444  3
    189    187    199    201     1  0.0000000  0.6508444  3
    191    190    196    434     1  0.0000000  1.0460000  1
    191    190    196    434     1  0.0000000  0.0000000  3
    191    190    196    197     1  0.0000000  0.6508444  3
    191    190    196    198     1  0.0000000  0.6508444  3
    192    190    196    434     1  0.0000000  1.0460000  1
    192    190    196    434     1  0.0000000  0.0000000  3
    192    190    196    197     1  0.0000000  0.6508444  3
    192    190    196    198     1  0.0000000  0.6508444  3
    196    434    425    426     1  0.0000000  1.6038667  3
    196    434    425    427     1  0.0000000  1.6038667  3
    197    196    434    425     1  0.0000000  1.6038667  3
    198    196    434    425     1  0.0000000  1.6038667  3
    199    463    454    455     1  0.0000000  1.6038667  3
    199    463    454    456     1  0.0000000  1.6038667  3
    200    199    463    454     1  0.0000000  1.6038667  3
    201    199    463    454     1  0.0000000  1.6038667  3
    203    204    216    217     1  0.0000000  0.6508444  3
    203    204    216    218     1  0.0000000  0.6508444  3
    203    207    219    220     1  0.0000000  0.6508444  3
    203    207    219    221     1  0.0000000  0.6508444  3
    203    210    213    214     1  0.0000000  0.6508444  3
    203    210    213    215     1  0.0000000  0.6508444  3
    204    203    207    208     1  0.0000000  1.2552000  3
    204    203    207    209     1  0.0000000  1.2552000  3
    204    203    210    211     1  0.0000000  1.2552000  3
    204    203    210    212     1  0.0000000  1.2552000  3
    204    216    228    229     1  0.0000000  0.6508444  3
    204    216    228    230     1  0.0000000  0.6508444  3
    205    204    203    207     1  0.0000000  1.2552000  3
    205    204    203    210     1  0.0000000  1.2552000  3
    205    204    216    228     1  0.0000000  0.6508444  3
    205    204    216    217     1  0.0000000  0.6508444  3
    205    204    216    218     1  0.0000000  0.6508444  3
    206    204    203    207     1  0.0000000  1.2552000  3
    206    204    203    210     1  0.0000000  1.2552000  3
    206    204    216    228     1  0.0000000  0.6508444  3
    206    204    216    217     1  0.0000000  0.6508444  3
    206    204    216    218     1  0.0000000  0.6508444  3
    207    203    210    211     1  0.0000000  1.2552000  3
    207    203    210    212     1  0.0000000  1.2552000  3
    207    219    225    226     1  0.0000000  0.6508444  3
    207    219    225    227     1  0.0000000  0.6508444  3
    208    207    203    210     1  0.0000000  1.2552000  3
    208    207    219    225     1  0.0000000  0.6508444  3
    208    207    219    220     1  0.0000000  0.6508444  3
    208    207    219    221     1  0.0000000  0.6508444  3
    209    207    203    210     1  0.0000000  1.2552000  3
    209    207    219    225     1  0.0000000  0.6508444  3
    209    207    219    220     1  0.0000000  0.6508444  3
    209    207    219    221     1  0.0000000  0.6508444  3
    210    213    222    223     1  0.0000000  0.6508444  3
    210    213    222    224     1  0.0000000  0.6508444  3
    211    210    213    222     1  0.0000000  0.6508444  3
    211    210    213    214     1  0.0000000  0.6508444  3
    211    210    213    215     1  0.0000000  0.6508444  3
    212    210    213    222     1  0.0000000  0.6508444  3
    212    210    213    214     1  0.0000000  0.6508444  3
    212    210    213    215     1  0.0000000  0.6508444  3
    214    213    222    231     1  0.0000000  1.0460000  1
    214    213    222    231     1  0.0000000  0.0000000  3
    214    213    222    223     1  0.0000000  0.6508444  3
    214    213    222    224     1  0.0000000  0.6508444  3
    215    213    222    231     1  0.0000000  1.0460000  1
    215    213    222    231     1  0.0000000  0.0000000  3
    215    213    222    223     1  0.0000000  0.6508444  3
    215    213    222    224     1  0.0000000  0.6508444  3
    217    216    228    521     1  0.0000000  1.0460000  1
    217    216    228    521     1  0.0000000  0.0000000  3
    217    216    228    229     1  0.0000000  0.6508444  3
    217    216    228    230     1  0.0000000  0.6508444  3
    218    216    228    521     1  0.0000000  1.0460000  1
    218    216    228    521     1  0.0000000  0.0000000  3
    218    216    228    229     1  0.0000000  0.6508444  3
    218    216    228    230     1  0.0000000  0.6508444  3
    220    219    225    492     1  0.0000000  1.0460000  1
    220    219    225    492     1  0.0000000  0.0000000  3
    220    219    225    226     1  0.0000000  0.6508444  3
    220    219    225    227     1  0.0000000  0.6508444  3
    221    219    225    492     1  0.0000000  1.0460000  1
    221    219    225    492     1  0.0000000  0.0000000  3
    221    219    225    226     1  0.0000000  0.6508444  3
    221    219    225    227     1  0.0000000  0.6508444  3
    225    492    483    484     1  0.0000000  1.6038667  3
    225    492    483    485     1  0.0000000  1.6038667  3
    226    225    492    483     1  0.0000000  1.6038667  3
    227    225    492    483     1  0.0000000  1.6038667  3
    228    521    512    513     1  0.0000000  1.6038667  3
    228    521    512    514     1  0.0000000  1.6038667  3
    229    228    521    512     1  0.0000000  1.6038667  3
    230    228    521    512     1  0.0000000  1.6038667  3
    232    233    245    246     1  0.0000000  0.6508444  3
    232    233    245    247     1  0.0000000  0.6508444  3
    232    236    248    249     1  0.0000000  0.6508444  3
    232    236    248    250     1  0.0000000  0.6508444  3
    232    239    242    243     1  0.0000000  0.6508444  3
    232    239    242    244     1  0.0000000  0.6508444  3
    233    232    236    237     1  0.0000000  1.2552000  3
    233    232    236    238     1  0.0000000  1.2552000  3
    233    232    239    240     1  0.0000000  1.2552000  3
    233    232    239    241     1  0.0000000  1.2552000  3
    233    245    257    258     1  0.0000000  0.6508444  3
    233    245    257    259     1  0.0000000  0.6508444  3
    234    233    232    236     1  0.0000000  1.2552000  3
    234    233    232    239     1  0.0000000  1.2552000  3
    234    233    245    257     1  0.0000000  0.6508444  3
    234    233    245    246     1  0.0000000  0.6508444  3
    234    233    245    247     1  0.0000000  0.6508444  3
    235    233    232    236     1  0.0000000  1.2552000  3
    235    233    232    239     1  0.0000000  1.2552000  3
    235    233    245    257     1  0.0000000  0.6508444  3
    235    233    245    246     1  0.0000000  0.6508444  3
    235    233    245    247     1  0.0000000  0.6508444  3
    236    232    239    240     1  0.0000000  1.2552000  3
    236    232    239    241     1  0.0000000  1.2552000  3
    236    248    254    255     1  0.0000000  0.6508444  3
    236    248    254    256     1  0.0000000  0.6508444  3
    237    236    232    239     1  0.0000000  1.2552000  3
    237    236    248    254     1  0.0000000  0.6508444  3
    237    236    248    249     1  0.0000000  0.6508444  3
    237    236    248    250     1  0.0000000  0.6508444  3
    238    236    232    239     1  0.0000000  1.2552000  3
    238    236    248    254     1  0.0000000  0.6508444  3
    238    236    248    249     1  0.0000000  0.6508444  3
    238    236    248    250     1  0.0000000  0.6508444  3
    239    242    251    252     1  0.0000000  0.6508444  3
    239    242    251    253     1  0.0000000  0.6508444  3
    240    239    242    251     1  0.0000000  0.6508444  3
    240    239    242    243     1  0.0000000  0.6508444  3
    240    239    242    244     1  0.0000000  0.6508444  3
    241    239    242    251     1  0.0000000  0.6508444  3
    241    239    242    243     1  0.0000000  0.6508444  3
    241    239    242    244     1  0.0000000  0.6508444  3
    243    242    251    260     1  0.0000000  1.0460000  1
    243    242    251    260     1  0.0000000  0.0000000  3
    243    242    251    252     1  0.0000000  0.6508444  3
    243    242    251    253     1  0.0000000  0.6508444  3
    244    242    251    260     1  0.0000000  1.0460000  1
    244    242    251    260     1  0.0000000  0.0000000  3
    244    242    251    252     1  0.0000000  0.6508444  3
    244    242    251    253     1  0.0000000  0.6508444  3
    246    245    257    579     1  0.0000000  1.0460000  1
    246    245    257    579     1  0.0000000  0.0000000  3
    246    245    257    258     1  0.0000000  0.6508444  3
    246    245    257    259     1  0.0000000  0.6508444  3
    247    245    257    579     1  0.0000000  1.0460000  1
    247    245    257    579     1  0.0000000  0.0000000  3
    247    245    257    258     1  0.0000000  0.6508444  3
    247    245    257    259     1  0.0000000  0.6508444  3
    249    248    254    550     1  0.0000000  1.0460000  1
    249    248    254    550     1  0.0000000  0.0000000  3
    249    248    254    255     1  0.0000000  0.6508444  3
    249    248    254    256     1  0.0000000  0.6508444  3
    250    248    254    550     1  0.0000000  1.0460000  1
    250    248    254    550     1  0.0000000  0.0000000  3
    250    248    254    255     1  0.0000000  0.6508444  3
    250    248    254    256     1  0.0000000  0.6508444  3
    254    550    541    542     1  0.0000000  1.6038667  3
    254    550    541    543     1  0.0000000  1.6038667  3
    255    254    550    541     1  0.0000000  1.6038667  3
    256    254    550    541     1  0.0000000  1.6038667  3
    257    579    570    571     1  0.0000000  1.6038667  3
    257    579    570    572     1  0.0000000  1.6038667  3
    258    257    579    570     1  0.0000000  1.6038667  3
    259    257    579    570     1  0.0000000  1.6038667  3
    261    262    274    275     1  0.0000000  0.6508444  3
    261    262    274    276     1  0.0000000  0.6508444  3
    261    265    277    278     1  0.0000000  0.6508444  3
    261    265    277    279     1  0.0000000  0.6508444  3
    261    268    271    272     1  0.0000000  0.6508444  3
    261    268    271    273     1  0.0000000  0.6508444  3
    262    261    265    266     1  0.0000000  1.2552000  3
    262    261    265    267     1  0.0000000  1.2552000  3
    262    261    268    269     1  0.0000000  1.2552000  3
    262    261    268    270     1  0.0000000  1.2552000  3
    262    274    286    287     1  0.0000000  0.6508444  3
    262    274    286    288     1  0.0000000  0.6508444  3
    263    262    261    265     1  0.0000000  1.2552000  3
    263    262    261    268     1  0.0000000  1.2552000  3
    263    262    274    286     1  0.0000000  0.6508444  3
    263    262    274    275     1  0.0000000  0.6508444  3
    263    262    274    276     1  0.0000000  0.6508444  3
    264    262    261    265     1  0.0000000  1.2552000  3
    264    262    261    268     1  0.0000000  1.2552000  3
    264    262    274    286     1  0.0000000  0.6508444  3
    264    262    274    275     1  0.0000000  0.6508444  3
    264    262    274    276     1  0.0000000  0.6508444  3
    265    261    268    269     1  0.0000000  1.2552000  3
    265    261    268    270     1  0.0000000  1.2552000  3
    265    277    283    284     1  0.0000000  0.6508444  3
    265    277    283    285     1  0.0000000  0.6508444  3
    266    265    261    268     1  0.0000000  1.2552000  3
    266    265    277    283     1  0.0000000  0.6508444  3
    266    265    277    278     1  0.0000000  0.6508444  3
    266    265    277    279     1  0.0000000  0.6508444  3
    267    265    261    268     1  0.0000000  1.2552000  3
    267    265    277    283     1  0.0000000  0.6508444  3
    267    265    277    278     1  0.0000000  0.6508444  3
    267    265    277    279     1  0.0000000  0.6508444  3
    268    271    280    281     1  0.0000000  0.6508444  3
    268    271    280    282     1  0.0000000  0.6508444  3
    269    268    271    280     1  0.0000000  0.6508444  3
    269    268    271    272     1  0.0000000  0.6508444  3
    269    268    271    273     1  0.0000000  0.6508444  3
    270    268    271    280     1  0.0000000  0.6508444  3
    270    268    271    272     1  0.0000000  0.6508444  3
    270    268    271    273     1  0.0000000  0.6508444  3
    272    271    280    289     1  0.0000000  1.0460000  1
    272    271    280    289     1  0.0000000  0.0000000  3
    272    271    280    281     1  0.0000000  0.6508444  3
    272    271    280    282     1  0.0000000  0.6508444  3
    273    271    280    289     1  0.0000000  1.0460000  1
    273    271    280    289     1  0.0000000  0.0000000  3
    273    271    280    281     1  0.0000000  0.6508444  3
    273    271    280    282     1  0.0000000  0.6508444  3
    275    274    286    637     1  0.0000000  1.0460000  1
    275    274    286    637     1  0.0000000  0.0000000  3
    275    274    286    287     1  0.0000000  0.6508444  3
    275    274    286    288     1  0.0000000  0.6508444  3
    276    274    286    637     1  0.0000000  1.0460000  1
    276    274    286    637     1  0.0000000  0.0000000  3
    276    274    286    287     1  0.0000000  0.6508444  3
    276    274    286    288     1  0.0000000  0.6508444  3
    278    277    283    608     1  0.0000000  1.0460000  1
    278    277    283    608     1  0.0000000  0.0000000  3
    278    277    283    284     1  0.0000000  0.6508444  3
    278    277    283    285     1  0.0000000  0.6508444  3
    279    277    283    608     1  0.0000000  1.0460000  1
    279    277    283    608     1  0.0000000  0.0000000  3
    279    277    283    284     1  0.0000000  0.6508444  3
    279    277    283    285     1  0.0000000  0.6508444  3
    283    608    599    600     1  0.0000000  1.6038667  3
    283    608    599    601     1  0.0000000  1.6038667  3
    284    283    608    599     1  0.0000000  1.6038667  3
    285    283    608    599     1  0.0000000  1.6038667  3
    286    637    628    629     1  0.0000000  1.6038667  3
    286    637    628    630     1  0.0000000  1.6038667  3
    287    286    637    628     1  0.0000000  1.6038667  3
    288    286    637    628     1  0.0000000  1.6038667  3
    290    291    303    304     1  0.0000000  0.6508444  3
    290    291    303    305     1  0.0000000  0.6508444  3
    290    294    306    307     1  0.0000000  0.6508444  3
    290    294    306    308     1  0.0000000  0.6508444  3
    290    297    300    301     1  0.0000000  0.6508444  3
    290    297    300    302     1  0.0000000  0.6508444  3
    291    290    294    295     1  0.0000000  1.2552000  3
    291    290    294    296     1  0.0000000  1.2552000  3
    291    290    297    298     1  0.0000000  1.2552000  3
    291    290    297    299     1  0.0000000  1.2552000  3
    291    303    315    316     1  0.0000000  0.6508444  3
    291    303    315    317     1  0.0000000  0.6508444  3
    292    291    290    294     1  0.0000000  1.2552000  3
    292    291    290    297     1  0.0000000  1.2552000  3
    292    291    303    315     1  0.0000000  0.6508444  3
    292    291    303    304     1  0.0000000  0.6508444  3
    292    291    303    305     1  0.0000000  0.6508444  3
    293    291    290    294     1  0.0000000  1.2552000  3
    293    291    290    297     1  0.0000000  1.2552000  3
    293    291    303    315     1  0.0000000  0.6508444  3
    293    291    303    304     1  0.0000000  0.6508444  3
    293    291    303    305     1  0.0000000  0.6508444  3
    294    290    297    298     1  0.0000000  1.2552000  3
    294    290    297    299     1  0.0000000  1.2552000  3
    294    306    312    313     1  0.0000000  0.6508444  3
    294    306    312    314     1  0.0000000  0.6508444  3
    295    294    290    297     1  0.0000000  1.2552000  3
    295    294    306    312     1  0.0000000  0.6508444  3
    295    294    306    307     1  0.0000000  0.6508444  3
    295    294    306    308     1  0.0000000  0.6508444  3
    296    294    290    297     1  0.0000000  1.2552000  3
    296    294    306    312     1  0.0000000  0.6508444  3
    296    294    306    307     1  0.0000000  0.6508444  3
    296    294    306    308     1  0.0000000  0.6508444  3
    297    300    309    310     1  0.0000000  0.6508444  3
    297    300    309    311     1  0.0000000  0.6508444  3
    298    297    300    309     1  0.0000000  0.6508444  3
    298    297    300    301     1  0.0000000  0.6508444  3
    298    297    300    302     1  0.0000000  0.6508444  3
    299    297    300    309     1  0.0000000  0.6508444  3
    299    297    300    301     1  0.0000000  0.6508444  3
    299    297    300    302     1  0.0000000  0.6508444  3
    301    300    309    318     1  0.0000000  1.0460000  1
    301    300    309    318     1  0.0000000  0.0000000  3
    301    300    309    310     1  0.0000000  0.6508444  3
    301    300    309    311     1  0.0000000  0.6508444  3
    302    300    309    318     1  0.0000000  1.0460000  1
    302    300    309    318     1  0.0000000  0.0000000  3
    302    300    309    310     1  0.0000000  0.6508444  3
    302    300    309    311     1  0.0000000  0.6508444  3
    304    303    315    695     1  0.0000000  1.0460000  1
    304    303    315    695     1  0.0000000  0.0000000  3
    304    303    315    316     1  0.0000000  0.6508444  3
    304    303    315    317     1  0.0000000  0.6508444  3
    305    303    315    695     1  0.0000000  1.0460000  1
    305    303    315    695     1  0.0000000  0.0000000  3
    305    303    315    316     1  0.0000000  0.6508444  3
    305    303    315    317     1  0.0000000  0.6508444  3
    307    306    312    666     1  0.0000000  1.0460000  1
    307    306    312    666     1  0.0000000  0.0000000  3
    307    306    312    313     1  0.0000000  0.6508444  3
    307    306    312    314     1  0.0000000  0.6508444  3
    308    306    312    666     1  0.0000000  1.0460000  1
    308    306    312    666     1  0.0000000  0.0000000  3
    308    306    312    313     1  0.0000000  0.6508444  3
    308    306    312    314     1  0.0000000  0.6508444  3
    312    666    657    658     1  0.0000000  1.6038667  3
    312    666    657    659     1  0.0000000  1.6038667  3
    313    312    666    657     1  0.0000000  1.6038667  3
    314    312    666    657     1  0.0000000  1.6038667  3
    315    695    686    687     1  0.0000000  1.6038667  3
    315    695    686    688     1  0.0000000  1.6038667  3
    316    315    695    686     1  0.0000000  1.6038667  3
    317    315    695    686     1  0.0000000  1.6038667  3
    319    320    332    333     1  0.0000000  0.6508444  3
    319    320    332    334     1  0.0000000  0.6508444  3
    319    323    335    336     1  0.0000000  0.6508444  3
    319    323    335    337     1  0.0000000  0.6508444  3
    319    326    329    330     1  0.0000000  0.6508444  3
    319    326    329    331     1  0.0000000  0.6508444  3
    320    319    323    324     1  0.0000000  1.2552000  3
    320    319    323    325     1  0.0000000  1.2552000  3
    320    319    326    327     1  0.0000000  1.2552000  3
    320    319    326    328     1  0.0000000  1.2552000  3
    320    332    344    345     1  0.0000000  0.6508444  3
    320    332    344    346     1  0.0000000  0.6508444  3
    321    320    319    323     1  0.0000000  1.2552000  3
    321    320    319    326     1  0.0000000  1.2552000  3
    321    320    332    344     1  0.0000000  0.6508444  3
    321    320    332    333     1  0.0000000  0.6508444  3
    321    320    332    334     1  0.0000000  0.6508444  3
    322    320    319    323     1  0.0000000  1.2552000  3
    322    320    319    326     1  0.0000000  1.2552000  3
    322    320    332    344     1  0.0000000  0.6508444  3
    322    320    332    333     1  0.0000000  0.6508444  3
    322    320    332    334     1  0.0000000  0.6508444  3
    323    319    326    327     1  0.0000000  1.2552000  3
    323    319    326    328     1  0.0000000  1.2552000  3
    323    335    341    342     1  0.0000000  0.6508444  3
    323    335    341    343     1  0.0000000  0.6508444  3
    324    323    319    326     1  0.0000000  1.2552000  3
    324    323    335    341     1  0.0000000  0.6508444  3
    324    323    335    336     1  0.0000000  0.6508444  3
    324    323    335    337     1  0.0000000  0.6508444  3
    325    323    319    326     1  0.0000000  1.2552000  3
    325    323    335    341     1  0.0000000  0.6508444  3
    325    323    335    336     1  0.0000000  0.6508444  3
    325    323    335    337     1  0.0000000  0.6508444  3
    326    329    338    339     1  0.0000000  0.6508444  3
    326    329    338    340     1  0.0000000  0.6508444  3
    327    326    329    338     1  0.0000000  0.6508444  3
    327    326    329    330     1  0.0000000  0.6508444  3
    327    326    329    331     1  0.0000000  0.6508444  3
    328    326    329    338     1  0.0000000  0.6508444  3
    328    326    329    330     1  0.0000000  0.6508444  3
    328    326    329    331     1  0.0000000  0.6508444  3
    330    329    338    347     1  0.0000000  1.0460000  1
    330    329    338    347     1  0.0000000  0.0000000  3
    330    329    338    339     1  0.0000000  0.6508444  3
    330    329    338    340     1  0.0000000  0.6508444  3
    331    329    338    347     1  0.0000000  1.0460000  1
    331    329    338    347     1  0.0000000  0.0000000  3
    331    329    338    339     1  0.0000000  0.6508444  3
    331    329    338    340     1  0.0000000  0.6508444  3
    333    332    344    753     1  0.0000000  1.0460000  1
    333    332    344    753     1  0.0000000  0.0000000  3
    333    332    344    345     1  0.0000000  0.6508444  3
    333    332    344    346     1  0.0000000  0.6508444  3
    334    332    344    753     1  0.0000000  1.0460000  1
    334    332    344    753     1  0.0000000  0.0000000  3
    334    332    344    345     1  0.0000000  0.6508444  3
    334    332    344    346     1  0.0000000  0.6508444  3
    336    335    341    724     1  0.0000000  1.0460000  1
    336    335    341    724     1  0.0000000  0.0000000  3
    336    335    341    342     1  0.0000000  0.6508444  3
    336    335    341    343     1  0.0000000  0.6508444  3
    337    335    341    724     1  0.0000000  1.0460000  1
    337    335    341    724     1  0.0000000  0.0000000  3
    337    335    341    342     1  0.0000000  0.6508444  3
    337    335    341    343     1  0.0000000  0.6508444  3
    341    724    715    716     1  0.0000000  1.6038667  3
    341    724    715    717     1  0.0000000  1.6038667  3
    342    341    724    715     1  0.0000000  1.6038667  3
    343    341    724    715     1  0.0000000  1.6038667  3
    344    753    744    745     1  0.0000000  1.6038667  3
    344    753    744    746     1  0.0000000  1.6038667  3
    345    344    753    744     1  0.0000000  1.6038667  3
    346    344    753    744     1  0.0000000  1.6038667  3
    348    349    361    362     1  0.0000000  0.6508444  3
    348    349    361    363     1  0.0000000  0.6508444  3
    348    352    364    365     1  0.0000000  0.6508444  3
    348    352    364    366     1  0.0000000  0.6508444  3
    348    355    358    359     1  0.0000000  0.6508444  3
    348    355    358    360     1  0.0000000  0.6508444  3
    349    348    352    353     1  0.0000000  1.2552000  3
    349    348    352    354     1  0.0000000  1.2552000  3
    349    348    355    356     1  0.0000000  1.2552000  3
    349    348    355    357     1  0.0000000  1.2552000  3
    349    361    373    374     1  0.0000000  0.6508444  3
    349    361    373    375     1  0.0000000  0.6508444  3
    350    349    348    352     1  0.0000000  1.2552000  3
    350    349    348    355     1  0.0000000  1.2552000  3
    350    349    361    373     1  0.0000000  0.6508444  3
    350    349    361    362     1  0.0000000  0.6508444  3
    350    349    361    363     1  0.0000000  0.6508444  3
    351    349    348    352     1  0.0000000  1.2552000  3
    351    349    348    355     1  0.0000000  1.2552000  3
    351    349    361    373     1  0.0000000  0.6508444  3
    351    349    361    362     1  0.0000000  0.6508444  3
    351    349    361    363     1  0.0000000  0.6508444  3
    352    348    355    356     1  0.0000000  1.2552000  3
    352    348    355    357     1  0.0000000  1.2552000  3
    352    364    370    371     1  0.0000000  0.6508444  3
    352    364    370    372     1  0.0000000  0.6508444  3
    353    352    348    355     1  0.0000000  1.2552000  3
    353    352    364    370     1  0.0000000  0.6508444  3
    353    352    364    365     1  0.0000000  0.6508444  3
    353    352    364    366     1  0.0000000  0.6508444  3
    354    352    348    355     1  0.0000000  1.2552000  3
    354    352    364    370     1  0.0000000  0.6508444  3
    354    352    364    365     1  0.0000000  0.6508444  3
    354    352    364    366     1  0.0000000  0.6508444  3
    355    358    367    368     1  0.0000000  0.6508444  3
    355    358    367    369     1  0.0000000  0.6508444  3
    356    355    358    367     1  0.0000000  0.6508444  3
    356    355    358    359     1  0.0000000  0.6508444  3
    356    355    358    360     1  0.0000000  0.6508444  3
    357    355    358    367     1  0.0000000  0.6508444  3
    357    355    358    359     1  0.0000000  0.6508444  3
    357    355    358    360     1  0.0000000  0.6508444  3
    359    358    367    376     1  0.0000000  1.0460000  1
    359    358    367    376     1  0.0000000  0.0000000  3
    359    358    367    368     1  0.0000000  0.6508444  3
    359    358    367    369     1  0.0000000  0.6508444  3
    360    358    367    376     1  0.0000000  1.0460000  1
    360    358    367    376     1  0.0000000  0.0000000  3
    360    358    367    368     1  0.0000000  0.6508444  3
    360    358    367    369     1  0.0000000  0.6508444  3
    362    361    373    811     1  0.0000000  1.0460000  1
    362    361    373    811     1  0.0000000  0.0000000  3
    362    361    373    374     1  0.0000000  0.6508444  3
    362    361    373    375     1  0.0000000  0.6508444  3
    363    361    373    811     1  0.0000000  1.0460000  1
    363    361    373    811     1  0.0000000  0.0000000  3
    363    361    373    374     1  0.0000000  0.6508444  3
    363    361    373    375     1  0.0000000  0.6508444  3
    365    364    370    782     1  0.0000000  1.0460000  1
    365    364    370    782     1  0.0000000  0.0000000  3
    365    364    370    371     1  0.0000000  0.6508444  3
    365    364    370    372     1  0.0000000  0.6508444  3
    366    364    370    782     1  0.0000000  1.0460000  1
    366    364    370    782     1  0.0000000  0.0000000  3
    366    364    370    371     1  0.0000000  0.6508444  3
    366    364    370    372     1  0.0000000  0.6508444  3
    370    782    773    774     1  0.0000000  1.6038667  3
    370    782    773    775     1  0.0000000  1.6038667  3
    371    370    782    773     1  0.0000000  1.6038667  3
    372    370    782    773     1  0.0000000  1.6038667  3
    373    811    802    803     1  0.0000000  1.6038667  3
    373    811    802    804     1  0.0000000  1.6038667  3
    374    373    811    802     1  0.0000000  1.6038667  3
    375    373    811    802     1  0.0000000  1.6038667  3
    377    378    390    391     1  0.0000000  0.6508444  3
    377    378    390    392     1  0.0000000  0.6508444  3
    377    381    393    394     1  0.0000000  0.6508444  3
    377    381    393    395     1  0.0000000  0.6508444  3
    377    384    387    388     1  0.0000000  0.6508444  3
    377    384    387    389     1  0.0000000  0.6508444  3
    378    377    381    382     1  0.0000000  1.2552000  3
    378    377    381    383     1  0.0000000  1.2552000  3
    378    377    384    385     1  0.0000000  1.2552000  3
    378    377    384    386     1  0.0000000  1.2552000  3
    378    390    402    403     1  0.0000000  0.6508444  3
    378    390    402    404     1  0.0000000  0.6508444  3
    379    378    377    381     1  0.0000000  1.2552000  3
    379    378    377    384     1  0.0000000  1.2552000  3
    379    378    390    402     1  0.0000000  0.6508444  3
    379    378    390    391     1  0.0000000  0.6508444  3
    379    378    390    392     1  0.0000000  0.6508444  3
    380    378    377    381     1  0.0000000  1.2552000  3
    380    378    377    384     1  0.0000000  1.2552000  3
    380    378    390    402     1  0.0000000  0.6508444  3
    380    378    390    391     1  0.0000000  0.6508444  3
    380    378    390    392     1  0.0000000  0.6508444  3
    381    377    384    385     1  0.0000000  1.2552000  3
    381    377    384    386     1  0.0000000  1.2552000  3
    381    393    399    400     1  0.0000000  0.6508444  3
    381    393    399    401     1  0.0000000  0.6508444  3
    382    381    377    384     1  0.0000000  1.2552000  3
    382    381    393    399     1  0.0000000  0.6508444  3
    382    381    393    394     1  0.0000000  0.6508444  3
    382    381    393    395     1  0.0000000  0.6508444  3
    383    381    377    384     1  0.0000000  1.2552000  3
    383    381    393    399     1  0.0000000  0.6508444  3
    383    381    393    394     1  0.0000000  0.6508444  3
    383    381    393    395     1  0.0000000  0.6508444  3
    384    387    396    397     1  0.0000000  0.6508444  3
    384    387    396    398     1  0.0000000  0.6508444  3
    385    384    387    396     1  0.0000000  0.6508444  3
    385    384    387    388     1  0.0000000  0.6508444  3
    385    384    387    389     1  0.0000000  0.6508444  3
    386    384    387    396     1  0.0000000  0.6508444  3
    386    384    387    388     1  0.0000000  0.6508444  3
    386    384    387    389     1  0.0000000  0.6508444  3
    388    387    396    405     1  0.0000000  1.0460000  1
    388    387    396    405     1  0.0000000  0.0000000  3
    388    387    396    397     1  0.0000000  0.6508444  3
    388    387    396    398     1  0.0000000  0.6508444  3
    389    387    396    405     1  0.0000000  1.0460000  1
    389    387    396    405     1  0.0000000  0.0000000  3
    389    387    396    397     1  0.0000000  0.6508444  3
    389    387    396    398     1  0.0000000  0.6508444  3
    391    390    402    869     1  0.0000000  1.0460000  1
    391    390    402    869     1  0.0000000  0.0000000  3
    391    390    402    403     1  0.0000000  0.6508444  3
    391    390    402    404     1  0.0000000  0.6508444  3
    392    390    402    869     1  0.0000000  1.0460000  1
    392    390    402    869     1  0.0000000  0.0000000  3
    392    390    402    403     1  0.0000000  0.6508444  3
    392    390    402    404     1  0.0000000  0.6508444  3
    394    393    399    840     1  0.0000000  1.0460000  1
    394    393    399    840     1  0.0000000  0.0000000  3
    394    393    399    400     1  0.0000000  0.6508444  3
    394    393    399    401     1  0.0000000  0.6508444  3
    395    393    399    840     1  0.0000000  1.0460000  1
    395    393    399    840     1  0.0000000  0.0000000  3
    395    393    399    400     1  0.0000000  0.6508444  3
    395    393    399    401     1  0.0000000  0.6508444  3
    399    840    831    832     1  0.0000000  1.6038667  3
    399    840    831    833     1  0.0000000  1.6038667  3
    400    399    840    831     1  0.0000000  1.6038667  3
    401    399    840    831     1  0.0000000  1.6038667  3
    402    869    860    861     1  0.0000000  1.6038667  3
    402    869    860    862     1  0.0000000  1.6038667  3
    403    402    869    860     1  0.0000000  1.6038667  3
    404    402    869    860     1  0.0000000  1.6038667  3
    406    407    419    420     1  0.0000000  0.6508444  3
    406    407    419    421     1  0.0000000  0.6508444  3
    406    410    422    423     1  0.0000000  0.6508444  3
    406    410    422    424     1  0.0000000  0.6508444  3
    406    413    416    417     1  0.0000000  0.6508444  3
    406    413    416    418     1  0.0000000  0.6508444  3
    407    406    410    411     1  0.0000000  1.2552000  3
    407    406    410    412     1  0.0000000  1.2552000  3
    407    406    413    414     1  0.0000000  1.2552000  3
    407    406    413    415     1  0.0000000  1.2552000  3
    407    419    431    432     1  0.0000000  0.6508444  3
    407    419    431    433     1  0.0000000  0.6508444  3
    408    407    406    410     1  0.0000000  1.2552000  3
    408    407    406    413     1  0.0000000  1.2552000  3
    408    407    419    431     1  0.0000000  0.6508444  3
    408    407    419    420     1  0.0000000  0.6508444  3
    408    407    419    421     1  0.0000000  0.6508444  3
    409    407    406    410     1  0.0000000  1.2552000  3
    409    407    406    413     1  0.0000000  1.2552000  3
    409    407    419    431     1  0.0000000  0.6508444  3
    409    407    419    420     1  0.0000000  0.6508444  3
    409    407    419    421     1  0.0000000  0.6508444  3
    410    406    413    414     1  0.0000000  1.2552000  3
    410    406    413    415     1  0.0000000  1.2552000  3
    410    422    428    429     1  0.0000000  0.6508444  3
    410    422    428    430     1  0.0000000  0.6508444  3
    411    410    406    413     1  0.0000000  1.2552000  3
    411    410    422    428     1  0.0000000  0.6508444  3
    411    410    422    423     1  0.0000000  0.6508444  3
    411    410    422    424     1  0.0000000  0.6508444  3
    412    410    406    413     1  0.0000000  1.2552000  3
    412    410    422    428     1  0.0000000  0.6508444  3
    412    410    422    423     1  0.0000000  0.6508444  3
    412    410    422    424     1  0.0000000  0.6508444  3
    413    416    425    426     1  0.0000000  0.6508444  3
    413    416    425    427     1  0.0000000  0.6508444  3
    414    413    416    425     1  0.0000000  0.6508444  3
    414    413    416    417     1  0.0000000  0.6508444  3
    414    413    416    418     1  0.0000000  0.6508444  3
    415    413    416    425     1  0.0000000  0.6508444  3
    415    413    416    417     1  0.0000000  0.6508444  3
    415    413    416    418     1  0.0000000  0.6508444  3
    417    416    425    434     1  0.0000000  1.0460000  1
    417    416    425    434     1  0.0000000  0.0000000  3
    417    416    425    426     1  0.0000000  0.6508444  3
    417    416    425    427     1  0.0000000  0.6508444  3
    418    416    425    434     1  0.0000000  1.0460000  1
    418    416    425    434     1  0.0000000  0.0000000  3
    418    416    425    426     1  0.0000000  0.6508444  3
    418    416    425    427     1  0.0000000  0.6508444  3
    420    419    431    927     1  0.0000000  1.0460000  1
    420    419    431    927     1  0.0000000  0.0000000  3
    420    419    431    432     1  0.0000000  0.6508444  3
    420    419    431    433     1  0.0000000  0.6508444  3
    421    419    431    927     1  0.0000000  1.0460000  1
    421    419    431    927     1  0.0000000  0.0000000  3
    421    419    431    432     1  0.0000000  0.6508444  3
    421    419    431    433     1  0.0000000  0.6508444  3
    423    422    428    898     1  0.0000000  1.0460000  1
    423    422    428    898     1  0.0000000  0.0000000  3
    423    422    428    429     1  0.0000000  0.6508444  3
    423    422    428    430     1  0.0000000  0.6508444  3
    424    422    428    898     1  0.0000000  1.0460000  1
    424    422    428    898     1  0.0000000  0.0000000  3
    424    422    428    429     1  0.0000000  0.6508444  3
    424    422    428    430     1  0.0000000  0.6508444  3
    428    898    889    890     1  0.0000000  1.6038667  3
    428    898    889    891     1  0.0000000  1.6038667  3
    429    428    898    889     1  0.0000000  1.6038667  3
    430    428    898    889     1  0.0000000  1.6038667  3
    431    927    918    919     1  0.0000000  1.6038667  3
    431    927    918    920     1  0.0000000  1.6038667  3
    432    431    927    918     1  0.0000000  1.6038667  3
    433    431    927    918     1  0.0000000  1.6038667  3
    435    436    448    449     1  0.0000000  0.6508444  3
    435    436    448    450     1  0.0000000  0.6508444  3
    435    439    451    452     1  0.0000000  0.6508444  3
    435    439    451    453     1  0.0000000  0.6508444  3
    435    442    445    446     1  0.0000000  0.6508444  3
    435    442    445    447     1  0.0000000  0.6508444  3
    436    435    439    440     1  0.0000000  1.2552000  3
    436    435    439    441     1  0.0000000  1.2552000  3
    436    435    442    443     1  0.0000000  1.2552000  3
    436    435    442    444     1  0.0000000  1.2552000  3
    436    448    460    461     1  0.0000000  0.6508444  3
    436    448    460    462     1  0.0000000  0.6508444  3
    437    436    435    439     1  0.0000000  1.2552000  3
    437    436    435    442     1  0.0000000  1.2552000  3
    437    436    448    460     1  0.0000000  0.6508444  3
    437    436    448    449     1  0.0000000  0.6508444  3
    437    436    448    450     1  0.0000000  0.6508444  3
    438    436    435    439     1  0.0000000  1.2552000  3
    438    436    435    442     1  0.0000000  1.2552000  3
    438    436    448    460     1  0.0000000  0.6508444  3
    438    436    448    449     1  0.0000000  0.6508444  3
    438    436    448    450     1  0.0000000  0.6508444  3
    439    435    442    443     1  0.0000000  1.2552000  3
    439    435    442    444     1  0.0000000  1.2552000  3
    439    451    457    458     1  0.0000000  0.6508444  3
    439    451    457    459     1  0.0000000  0.6508444  3
    440    439    435    442     1  0.0000000  1.2552000  3
    440    439    451    457     1  0.0000000  0.6508444  3
    440    439    451    452     1  0.0000000  0.6508444  3
    440    439    451    453     1  0.0000000  0.6508444  3
    441    439    435    442     1  0.0000000  1.2552000  3
    441    439    451    457     1  0.0000000  0.6508444  3
    441    439    451    452     1  0.0000000  0.6508444  3
    441    439    451    453     1  0.0000000  0.6508444  3
    442    445    454    455     1  0.0000000  0.6508444  3
    442    445    454    456     1  0.0000000  0.6508444  3
    443    442    445    454     1  0.0000000  0.6508444  3
    443    442    445    446     1  0.0000000  0.6508444  3
    443    442    445    447     1  0.0000000  0.6508444  3
    444    442    445    454     1  0.0000000  0.6508444  3
    444    442    445    446     1  0.0000000  0.6508444  3
    444    442    445    447     1  0.0000000  0.6508444  3
    446    445    454    463     1  0.0000000  1.0460000  1
    446    445    454    463     1  0.0000000  0.0000000  3
    446    445    454    455     1  0.0000000  0.6508444  3
    446    445    454    456     1  0.0000000  0.6508444  3
    447    445    454    463     1  0.0000000  1.0460000  1
    447    445    454    463     1  0.0000000  0.0000000  3
    447    445    454    455     1  0.0000000  0.6508444  3
    447    445    454    456     1  0.0000000  0.6508444  3
    449    448    460    985     1  0.0000000  1.0460000  1
    449    448    460    985     1  0.0000000  0.0000000  3
    449    448    460    461     1  0.0000000  0.6508444  3
    449    448    460    462     1  0.0000000  0.6508444  3
    450    448    460    985     1  0.0000000  1.0460000  1
    450    448    460    985     1  0.0000000  0.0000000  3
    450    448    460    461     1  0.0000000  0.6508444  3
    450    448    460    462     1  0.0000000  0.6508444  3
    452    451    457    956     1  0.0000000  1.0460000  1
    452    451    457    956     1  0.0000000  0.0000000  3
    452    451    457    458     1  0.0000000  0.6508444  3
    452    451    457    459     1  0.0000000  0.6508444  3
    453    451    457    956     1  0.0000000  1.0460000  1
    453    451    457    956     1  0.0000000  0.0000000  3
    453    451    457    458     1  0.0000000  0.6508444  3
    453    451    457    459     1  0.0000000  0.6508444  3
    457    956    947    948     1  0.0000000  1.6038667  3
    457    956    947    949     1  0.0000000  1.6038667  3
    458    457    956    947     1  0.0000000  1.6038667  3
    459    457    956    947     1  0.0000000  1.6038667  3
    460    985    976    977     1  0.0000000  1.6038667  3
    460    985    976    978     1  0.0000000  1.6038667  3
    461    460    985    976     1  0.0000000  1.6038667  3
    462    460    985    976     1  0.0000000  1.6038667  3
    464    465    477    478     1  0.0000000  0.6508444  3
    464    465    477    479     1  0.0000000  0.6508444  3
    464    468    480    481     1  0.0000000  0.6508444  3
    464    468    480    482     1  0.0000000  0.6508444  3
    464    471    474    475     1  0.0000000  0.6508444  3
    464    471    474    476     1  0.0000000  0.6508444  3
    465    464    468    469     1  0.0000000  1.2552000  3
    465    464    468    470     1  0.0000000  1.2552000  3
    465    464    471    472     1  0.0000000  1.2552000  3
    465    464    471    473     1  0.0000000  1.2552000  3
    465    477    489    490     1  0.0000000  0.6508444  3
    465    477    489    491     1  0.0000000  0.6508444  3
    466    465    464    468     1  0.0000000  1.2552000  3
    466    465    464    471     1  0.0000000  1.2552000  3
    466    465    477    489     1  0.0000000  0.6508444  3
    466    465    477    478     1  0.0000000  0.6508444  3
    466    465    477    479     1  0.0000000  0.6508444  3
    467    465    464    468     1  0.0000000  1.2552000  3
    467    465    464    471     1  0.0000000  1.2552000  3
    467    465    477    489     1  0.0000000  0.6508444  3
    467    465    477    478     1  0.0000000  0.6508444  3
    467    465    477    479     1  0.0000000  0.6508444  3
    468    464    471    472     1  0.0000000  1.2552000  3
    468    464    471    473     1  0.0000000  1.2552000  3
    468    480    486    487     1  0.0000000  0.6508444  3
    468    480    486    488     1  0.0000000  0.6508444  3
    469    468    464    471     1  0.0000000  1.2552000  3
    469    468    480    486     1  0.0000000  0.6508444  3
    469    468    480    481     1  0.0000000  0.6508444  3
    469    468    480    482     1  0.0000000  0.6508444  3
    470    468    464    471     1  0.0000000  1.2552000  3
    470    468    480    486     1  0.0000000  0.6508444  3
    470    468    480    481     1  0.0000000  0.6508444  3
    470    468    480    482     1  0.0000000  0.6508444  3
    471    474    483    484     1  0.0000000  0.6508444  3
    471    474    483    485     1  0.0000000  0.6508444  3
    472    471    474    483     1  0.0000000  0.6508444  3
    472    471    474    475     1  0.0000000  0.6508444  3
    472    471    474    476     1  0.0000000  0.6508444  3
    473    471    474    483     1  0.0000000  0.6508444  3
    473    471    474    475     1  0.0000000  0.6508444  3
    473    471    474    476     1  0.0000000  0.6508444  3
    475    474    483    492     1  0.0000000  1.0460000  1
    475    474    483    492     1  0.0000000  0.0000000  3
    475    474    483    484     1  0.0000000  0.6508444  3
    475    474    483    485     1  0.0000000  0.6508444  3
    476    474    483    492     1  0.0000000  1.0460000  1
    476    474    483    492     1  0.0000000  0.0000000  3
    476    474    483    484     1  0.0000000  0.6508444  3
    476    474    483    485     1  0.0000000  0.6508444  3
    478    477    489   1043     1  0.0000000  1.0460000  1
    478    477    489   1043     1  0.0000000  0.0000000  3
    478    477    489    490     1  0.0000000  0.6508444  3
    478    477    489    491     1  0.0000000  0.6508444  3
    479    477    489   1043     1  0.0000000  1.0460000  1
    479    477    489   1043     1  0.0000000  0.0000000  3
    479    477    489    490     1  0.0000000  0.6508444  3
    479    477    489    491     1  0.0000000  0.6508444  3
    481    480    486   1014     1  0.0000000  1.0460000  1
    481    480    486   1014     1  0.0000000  0.0000000  3
    481    480    486    487     1  0.0000000  0.6508444  3
    481    480    486    488     1  0.0000000  0.6508444  3
    482    480    486   1014     1  0.0000000  1.0460000  1
    482    480    486   1014     1  0.0000000  0.0000000  3
    482    480    486    487     1  0.0000000  0.6508444  3
    482    480    486    488     1  0.0000000  0.6508444  3
    486   1014   1005   1006     1  0.0000000  1.6038667  3
    486   1014   1005   1007     1  0.0000000  1.6038667  3
    487    486   1014   1005     1  0.0000000  1.6038667  3
    488    486   1014   1005     1  0.0000000  1.6038667  3
    489   1043   1034   1035     1  0.0000000  1.6038667  3
    489   1043   1034   1036     1  0.0000000  1.6038667  3
    490    489   1043   1034     1  0.0000000  1.6038667  3
    491    489   1043   1034     1  0.0000000  1.6038667  3
    493    494    506    507     1  0.0000000  0.6508444  3
    493    494    506    508     1  0.0000000  0.6508444  3
    493    497    509    510     1  0.0000000  0.6508444  3
    493    497    509    511     1  0.0000000  0.6508444  3
    493    500    503    504     1  0.0000000  0.6508444  3
    493    500    503    505     1  0.0000000  0.6508444  3
    494    493    497    498     1  0.0000000  1.2552000  3
    494    493    497    499     1  0.0000000  1.2552000  3
    494    493    500    501     1  0.0000000  1.2552000  3
    494    493    500    502     1  0.0000000  1.2552000  3
    494    506    518    519     1  0.0000000  0.6508444  3
    494    506    518    520     1  0.0000000  0.6508444  3
    495    494    493    497     1  0.0000000  1.2552000  3
    495    494    493    500     1  0.0000000  1.2552000  3
    495    494    506    518     1  0.0000000  0.6508444  3
    495    494    506    507     1  0.0000000  0.6508444  3
    495    494    506    508     1  0.0000000  0.6508444  3
    496    494    493    497     1  0.0000000  1.2552000  3
    496    494    493    500     1  0.0000000  1.2552000  3
    496    494    506    518     1  0.0000000  0.6508444  3
    496    494    506    507     1  0.0000000  0.6508444  3
    496    494    506    508     1  0.0000000  0.6508444  3
    497    493    500    501     1  0.0000000  1.2552000  3
    497    493    500    502     1  0.0000000  1.2552000  3
    497    509    515    516     1  0.0000000  0.6508444  3
    497    509    515    517     1  0.0000000  0.6508444  3
    498    497    493    500     1  0.0000000  1.2552000  3
    498    497    509    515     1  0.0000000  0.6508444  3
    498    497    509    510     1  0.0000000  0.6508444  3
    498    497    509    511     1  0.0000000  0.6508444  3
    499    497    493    500     1  0.0000000  1.2552000  3
    499    497    509    515     1  0.0000000  0.6508444  3
    499    497    509    510     1  0.0000000  0.6508444  3
    499    497    509    511     1  0.0000000  0.6508444  3
    500    503    512    513     1  0.0000000  0.6508444  3
    500    503    512    514     1  0.0000000  0.6508444  3
    501    500    503    512     1  0.0000000  0.6508444  3
    501    500    503    504     1  0.0000000  0.6508444  3
    501    500    503    505     1  0.0000000  0.6508444  3
    502    500    503    512     1  0.0000000  0.6508444  3
    502    500    503    504     1  0.0000000  0.6508444  3
    502    500    503    505     1  0.0000000  0.6508444  3
    504    503    512    521     1  0.0000000  1.0460000  1
    504    503    512    521     1  0.0000000  0.0000000  3
    504    503    512    513     1  0.0000000  0.6508444  3
    504    503    512    514     1  0.0000000  0.6508444  3
    505    503    512    521     1  0.0000000  1.0460000  1
    505    503    512    521     1  0.0000000  0.0000000  3
    505    503    512    513     1  0.0000000  0.6508444  3
    505    503    512    514     1  0.0000000  0.6508444  3
    507    506    518   1101     1  0.0000000  1.0460000  1
    507    506    518   1101     1  0.0000000  0.0000000  3
    507    506    518    519     1  0.0000000  0.6508444  3
    507    506    518    520     1  0.0000000  0.6508444  3
    508    506    518   1101     1  0.0000000  1.0460000  1
    508    506    518   1101     1  0.0000000  0.0000000  3
    508    506    518    519     1  0.0000000  0.6508444  3
    508    506    518    520     1  0.0000000  0.6508444  3
    510    509    515   1072     1  0.0000000  1.0460000  1
    510    509    515   1072     1  0.0000000  0.0000000  3
    510    509    515    516     1  0.0000000  0.6508444  3
    510    509    515    517     1  0.0000000  0.6508444  3
    511    509    515   1072     1  0.0000000  1.0460000  1
    511    509    515   1072     1  0.0000000  0.0000000  3
    511    509    515    516     1  0.0000000  0.6508444  3
    511    509    515    517     1  0.0000000  0.6508444  3
    515   1072   1063   1064     1  0.0000000  1.6038667  3
    515   1072   1063   1065     1  0.0000000  1.6038667  3
    516    515   1072   1063     1  0.0000000  1.6038667  3
    517    515   1072   1063     1  0.0000000  1.6038667  3
    518   1101   1092   1093     1  0.0000000  1.6038667  3
    518   1101   1092   1094     1  0.0000000  1.6038667  3
    519    518   1101   1092     1  0.0000000  1.6038667  3
    520    518   1101   1092     1  0.0000000  1.6038667  3
    522    523    535    536     1  0.0000000  0.6508444  3
    522    523    535    537     1  0.0000000  0.6508444  3
    522    526    538    539     1  0.0000000  0.6508444  3
    522    526    538    540     1  0.0000000  0.6508444  3
    522    529    532    533     1  0.0000000  0.6508444  3
    522    529    532    534     1  0.0000000  0.6508444  3
    523    522    526    527     1  0.0000000  1.2552000  3
    523    522    526    528     1  0.0000000  1.2552000  3
    523    522    529    530     1  0.0000000  1.2552000  3
    523    522    529    531     1  0.0000000  1.2552000  3
    523    535    547    548     1  0.0000000  0.6508444  3
    523    535    547    549     1  0.0000000  0.6508444  3
    524    523    522    526     1  0.0000000  1.2552000  3
    524    523    522    529     1  0.0000000  1.2552000  3
    524    523    535    547     1  0.0000000  0.6508444  3
    524    523    535    536     1  0.0000000  0.6508444  3
    524    523    535    537     1  0.0000000  0.6508444  3
    525    523    522    526     1  0.0000000  1.2552000  3
    525    523    522    529     1  0.0000000  1.2552000  3
    525    523    535    547     1  0.0000000  0.6508444  3
    525    523    535    536     1  0.0000000  0.6508444  3
    525    523    535    537     1  0.0000000  0.6508444  3
    526    522    529    530     1  0.0000000  1.2552000  3
    526    522    529    531     1  0.0000000  1.2552000  3
    526    538    544    545     1  0.0000000  0.6508444  3
    526    538    544    546     1  0.0000000  0.6508444  3
    527    526    522    529     1  0.0000000  1.2552000  3
    527    526    538    544     1  0.0000000  0.6508444  3
    527    526    538    539     1  0.0000000  0.6508444  3
    527    526    538    540     1  0.0000000  0.6508444  3
    528    526    522    529     1  0.0000000  1.2552000  3
    528    526    538    544     1  0.0000000  0.6508444  3
    528    526    538    539     1  0.0000000  0.6508444  3
    528    526    538    540     1  0.0000000  0.6508444  3
    529    532    541    542     1  0.0000000  0.6508444  3
    529    532    541    543     1  0.0000000  0.6508444  3
    530    529    532    541     1  0.0000000  0.6508444  3
    530    529    532    533     1  0.0000000  0.6508444  3
    530    529    532    534     1  0.0000000  0.6508444  3
    531    529    532    541     1  0.0000000  0.6508444  3
    531    529    532    533     1  0.0000000  0.6508444  3
    531    529    532    534     1  0.0000000  0.6508444  3
    533    532    541    550     1  0.0000000  1.0460000  1
    533    532    541    550     1  0.0000000  0.0000000  3
    533    532    541    542     1  0.0000000  0.6508444  3
    533    532    541    543     1  0.0000000  0.6508444  3
    534    532    541    550     1  0.0000000  1.0460000  1
    534    532    541    550     1  0.0000000  0.0000000  3
    534    532    541    542     1  0.0000000  0.6508444  3
    534    532    541    543     1  0.0000000  0.6508444  3
    536    535    547   1159     1  0.0000000  1.0460000  1
    536    535    547   1159     1  0.0000000  0.0000000  3
    536    535    547    548     1  0.0000000  0.6508444  3
    536    535    547    549     1  0.0000000  0.6508444  3
    537    535    547   1159     1  0.0000000  1.0460000  1
    537    535    547   1159     1  0.0000000  0.0000000  3
    537    535    547    548     1  0.0000000  0.6508444  3
    537    535    547    549     1  0.0000000  0.6508444  3
    539    538    544   1130     1  0.0000000  1.0460000  1
    539    538    544   1130     1  0.0000000  0.0000000  3
    539    538    544    545     1  0.0000000  0.6508444  3
    539    538    544    546     1  0.0000000  0.6508444  3
    540    538    544   1130     1  0.0000000  1.0460000  1
    540    538    544   1130     1  0.0000000  0.0000000  3
    540    538    544    545     1  0.0000000  0.6508444  3
    540    538    544    546     1  0.0000000  0.6508444  3
    544   1130   1121   1122     1  0.0000000  1.6038667  3
    544   1130   1121   1123     1  0.0000000  1.6038667  3
    545    544   1130   1121     1  0.0000000  1.6038667  3
    546    544   1130   1121     1  0.0000000  1.6038667  3
    547   1159   1150   1151     1  0.0000000  1.6038667  3
    547   1159   1150   1152     1  0.0000000  1.6038667  3
    548    547   1159   1150     1  0.0000000  1.6038667  3
    549    547   1159   1150     1  0.0000000  1.6038667  3
    551    552    564    565     1  0.0000000  0.6508444  3
    551    552    564    566     1  0.0000000  0.6508444  3
    551    555    567    568     1  0.0000000  0.6508444  3
    551    555    567    569     1  0.0000000  0.6508444  3
    551    558    561    562     1  0.0000000  0.6508444  3
    551    558    561    563     1  0.0000000  0.6508444  3
    552    551    555    556     1  0.0000000  1.2552000  3
    552    551    555    557     1  0.0000000  1.2552000  3
    552    551    558    559     1  0.0000000  1.2552000  3
    552    551    558    560     1  0.0000000  1.2552000  3
    552    564    576    577     1  0.0000000  0.6508444  3
    552    564    576    578     1  0.0000000  0.6508444  3
    553    552    551    555     1  0.0000000  1.2552000  3
    553    552    551    558     1  0.0000000  1.2552000  3
    553    552    564    576     1  0.0000000  0.6508444  3
    553    552    564    565     1  0.0000000  0.6508444  3
    553    552    564    566     1  0.0000000  0.6508444  3
    554    552    551    555     1  0.0000000  1.2552000  3
    554    552    551    558     1  0.0000000  1.2552000  3
    554    552    564    576     1  0.0000000  0.6508444  3
    554    552    564    565     1  0.0000000  0.6508444  3
    554    552    564    566     1  0.0000000  0.6508444  3
    555    551    558    559     1  0.0000000  1.2552000  3
    555    551    558    560     1  0.0000000  1.2552000  3
    555    567    573    574     1  0.0000000  0.6508444  3
    555    567    573    575     1  0.0000000  0.6508444  3
    556    555    551    558     1  0.0000000  1.2552000  3
    556    555    567    573     1  0.0000000  0.6508444  3
    556    555    567    568     1  0.0000000  0.6508444  3
    556    555    567    569     1  0.0000000  0.6508444  3
    557    555    551    558     1  0.0000000  1.2552000  3
    557    555    567    573     1  0.0000000  0.6508444  3
    557    555    567    568     1  0.0000000  0.6508444  3
    557    555    567    569     1  0.0000000  0.6508444  3
    558    561    570    571     1  0.0000000  0.6508444  3
    558    561    570    572     1  0.0000000  0.6508444  3
    559    558    561    570     1  0.0000000  0.6508444  3
    559    558    561    562     1  0.0000000  0.6508444  3
    559    558    561    563     1  0.0000000  0.6508444  3
    560    558    561    570     1  0.0000000  0.6508444  3
    560    558    561    562     1  0.0000000  0.6508444  3
    560    558    561    563     1  0.0000000  0.6508444  3
    562    561    570    579     1  0.0000000  1.0460000  1
    562    561    570    579     1  0.0000000  0.0000000  3
    562    561    570    571     1  0.0000000  0.6508444  3
    562    561    570    572     1  0.0000000  0.6508444  3
    563    561    570    579     1  0.0000000  1.0460000  1
    563    561    570    579     1  0.0000000  0.0000000  3
    563    561    570    571     1  0.0000000  0.6508444  3
    563    561    570    572     1  0.0000000  0.6508444  3
    565    564    576   1217     1  0.0000000  1.0460000  1
    565    564    576   1217     1  0.0000000  0.0000000  3
    565    564    576    577     1  0.0000000  0.6508444  3
    565    564    576    578     1  0.0000000  0.6508444  3
    566    564    576   1217     1  0.0000000  1.0460000  1
    566    564    576   1217     1  0.0000000  0.0000000  3
    566    564    576    577     1  0.0000000  0.6508444  3
    566    564    576    578     1  0.0000000  0.6508444  3
    568    567    573   1188     1  0.0000000  1.0460000  1
    568    567    573   1188     1  0.0000000  0.0000000  3
    568    567    573    574     1  0.0000000  0.6508444  3
    568    567    573    575     1  0.0000000  0.6508444  3
    569    567    573   1188     1  0.0000000  1.0460000  1
    569    567    573   1188     1  0.0000000  0.0000000  3
    569    567    573    574     1  0.0000000  0.6508444  3
    569    567    573    575     1  0.0000000  0.6508444  3
    573   1188   1179   1180     1  0.0000000  1.6038667  3
    573   1188   1179   1181     1  0.0000000  1.6038667  3
    574    573   1188   1179     1  0.0000000  1.6038667  3
    575    573   1188   1179     1  0.0000000  1.6038667  3
    576   1217   1208   1209     1  0.0000000  1.6038667  3
    576   1217   1208   1210     1  0.0000000  1.6038667  3
    577    576   1217   1208     1  0.0000000  1.6038667  3
    578    576   1217   1208     1  0.0000000  1.6038667  3
    580    581    593    594     1  0.0000000  0.6508444  3
    580    581    593    595     1  0.0000000  0.6508444  3
    580    584    596    597     1  0.0000000  0.6508444  3
    580    584    596    598     1  0.0000000  0.6508444  3
    580    587    590    591     1  0.0000000  0.6508444  3
    580    587    590    592     1  0.0000000  0.6508444  3
    581    580    584    585     1  0.0000000  1.2552000  3
    581    580    584    586     1  0.0000000  1.2552000  3
    581    580    587    588     1  0.0000000  1.2552000  3
    581    580    587    589     1  0.0000000  1.2552000  3
    581    593    605    606     1  0.0000000  0.6508444  3
    581    593    605    607     1  0.0000000  0.6508444  3
    582    581    580    584     1  0.0000000  1.2552000  3
    582    581    580    587     1  0.0000000  1.2552000  3
    582    581    593    605     1  0.0000000  0.6508444  3
    582    581    593    594     1  0.0000000  0.6508444  3
    582    581    593    595     1  0.0000000  0.6508444  3
    583    581    580    584     1  0.0000000  1.2552000  3
    583    581    580    587     1  0.0000000  1.2552000  3
    583    581    593    605     1  0.0000000  0.6508444  3
    583    581    593    594     1  0.0000000  0.6508444  3
    583    581    593    595     1  0.0000000  0.6508444  3
    584    580    587    588     1  0.0000000  1.2552000  3
    584    580    587    589     1  0.0000000  1.2552000  3
    584    596    602    603     1  0.0000000  0.6508444  3
    584    596    602    604     1  0.0000000  0.6508444  3
    585    584    580    587     1  0.0000000  1.2552000  3
    585    584    596    602     1  0.0000000  0.6508444  3
    585    584    596    597     1  0.0000000  0.6508444  3
    585    584    596    598     1  0.0000000  0.6508444  3
    586    584    580    587     1  0.0000000  1.2552000  3
    586    584    596    602     1  0.0000000  0.6508444  3
    586    584    596    597     1  0.0000000  0.6508444  3
    586    584    596    598     1  0.0000000  0.6508444  3
    587    590    599    600     1  0.0000000  0.6508444  3
    587    590    599    601     1  0.0000000  0.6508444  3
    588    587    590    599     1  0.0000000  0.6508444  3
    588    587    590    591     1  0.0000000  0.6508444  3
    588    587    590    592     1  0.0000000  0.6508444  3
    589    587    590    599     1  0.0000000  0.6508444  3
    589    587    590    591     1  0.0000000  0.6508444  3
    589    587    590    592     1  0.0000000  0.6508444  3
    591    590    599    608     1  0.0000000  1.0460000  1
    591    590    599    608     1  0.0000000  0.0000000  3
    591    590    599    600     1  0.0000000  0.6508444  3
    591    590    599    601     1  0.0000000  0.6508444  3
    592    590    599    608     1  0.0000000  1.0460000  1
    592    590    599    608     1  0.0000000  0.0000000  3
    592    590    599    600     1  0.0000000  0.6508444  3
    592    590    599    601     1  0.0000000  0.6508444  3
    594    593    605   1275     1  0.0000000  1.0460000  1
    594    593    605   1275     1  0.0000000  0.0000000  3
    594    593    605    606     1  0.0000000  0.6508444  3
    594    593    605    607     1  0.0000000  0.6508444  3
    595    593    605   1275     1  0.0000000  1.0460000  1
    595    593    605   1275     1  0.0000000  0.0000000  3
    595    593    605    606     1  0.0000000  0.6508444  3
    595    593    605    607     1  0.0000000  0.6508444  3
    597    596    602   1246     1  0.0000000  1.0460000  1
    597    596    602   1246     1  0.0000000  0.0000000  3
    597    596    602    603     1  0.0000000  0.6508444  3
    597    596    602    604     1  0.0000000  0.6508444  3
    598    596    602   1246     1  0.0000000  1.0460000  1
    598    596    602   1246     1  0.0000000  0.0000000  3
    598    596    602    603     1  0.0000000  0.6508444  3
    598    596    602    604     1  0.0000000  0.6508444  3
    602   1246   1237   1238     1  0.0000000  1.6038667  3
    602   1246   1237   1239     1  0.0000000  1.6038667  3
    603    602   1246   1237     1  0.0000000  1.6038667  3
    604    602   1246   1237     1  0.0000000  1.6038667  3
    605   1275   1266   1267     1  0.0000000  1.6038667  3
    605   1275   1266   1268     1  0.0000000  1.6038667  3
    606    605   1275   1266     1  0.0000000  1.6038667  3
    607    605   1275   1266     1  0.0000000  1.6038667  3
    609    610    622    623     1  0.0000000  0.6508444  3
    609    610    622    624     1  0.0000000  0.6508444  3
    609    613    625    626     1  0.0000000  0.6508444  3
    609    613    625    627     1  0.0000000  0.6508444  3
    609    616    619    620     1  0.0000000  0.6508444  3
    609    616    619    621     1  0.0000000  0.6508444  3
    610    609    613    614     1  0.0000000  1.2552000  3
    610    609    613    615     1  0.0000000  1.2552000  3
    610    609    616    617     1  0.0000000  1.2552000  3
    610    609    616    618     1  0.0000000  1.2552000  3
    610    622    634    635     1  0.0000000  0.6508444  3
    610    622    634    636     1  0.0000000  0.6508444  3
    611    610    609    613     1  0.0000000  1.2552000  3
    611    610    609    616     1  0.0000000  1.2552000  3
    611    610    622    634     1  0.0000000  0.6508444  3
    611    610    622    623     1  0.0000000  0.6508444  3
    611    610    622    624     1  0.0000000  0.6508444  3
    612    610    609    613     1  0.0000000  1.2552000  3
    612    610    609    616     1  0.0000000  1.2552000  3
    612    610    622    634     1  0.0000000  0.6508444  3
    612    610    622    623     1  0.0000000  0.6508444  3
    612    610    622    624     1  0.0000000  0.6508444  3
    613    609    616    617     1  0.0000000  1.2552000  3
    613    609    616    618     1  0.0000000  1.2552000  3
    613    625    631    632     1  0.0000000  0.6508444  3
    613    625    631    633     1  0.0000000  0.6508444  3
    614    613    609    616     1  0.0000000  1.2552000  3
    614    613    625    631     1  0.0000000  0.6508444  3
    614    613    625    626     1  0.0000000  0.6508444  3
    614    613    625    627     1  0.0000000  0.6508444  3
    615    613    609    616     1  0.0000000  1.2552000  3
    615    613    625    631     1  0.0000000  0.6508444  3
    615    613    625    626     1  0.0000000  0.6508444  3
    615    613    625    627     1  0.0000000  0.6508444  3
    616    619    628    629     1  0.0000000  0.6508444  3
    616    619    628    630     1  0.0000000  0.6508444  3
    617    616    619    628     1  0.0000000  0.6508444  3
    617    616    619    620     1  0.0000000  0.6508444  3
    617    616    619    621     1  0.0000000  0.6508444  3
    618    616    619    628     1  0.0000000  0.6508444  3
    618    616    619    620     1  0.0000000  0.6508444  3
    618    616    619    621     1  0.0000000  0.6508444  3
    620    619    628    637     1  0.0000000  1.0460000  1
    620    619    628    637     1  0.0000000  0.0000000  3
    620    619    628    629     1  0.0000000  0.6508444  3
    620    619    628    630     1  0.0000000  0.6508444  3
    621    619    628    637     1  0.0000000  1.0460000  1
    621    619    628    637     1  0.0000000  0.0000000  3
    621    619    628    629     1  0.0000000  0.6508444  3
    621    619    628    630     1  0.0000000  0.6508444  3
    623    622    634   1333     1  0.0000000  1.0460000  1
    623    622    634   1333     1  0.0000000  0.0000000  3
    623    622    634    635     1  0.0000000  0.6508444  3
    623    622    634    636     1  0.0000000  0.6508444  3
    624    622    634   1333     1  0.0000000  1.0460000  1
    624    622    634   1333     1  0.0000000  0.0000000  3
    624    622    634    635     1  0.0000000  0.6508444  3
    624    622    634    636     1  0.0000000  0.6508444  3
    626    625    631   1304     1  0.0000000  1.0460000  1
    626    625    631   1304     1  0.0000000  0.0000000  3
    626    625    631    632     1  0.0000000  0.6508444  3
    626    625    631    633     1  0.0000000  0.6508444  3
    627    625    631   1304     1  0.0000000  1.0460000  1
    627    625    631   1304     1  0.0000000  0.0000000  3
    627    625    631    632     1  0.0000000  0.6508444  3
    627    625    631    633     1  0.0000000  0.6508444  3
    631   1304   1295   1296     1  0.0000000  1.6038667  3
    631   1304   1295   1297     1  0.0000000  1.6038667  3
    632    631   1304   1295     1  0.0000000  1.6038667  3
    633    631   1304   1295     1  0.0000000  1.6038667  3
    634   1333   1324   1325     1  0.0000000  1.6038667  3
    634   1333   1324   1326     1  0.0000000  1.6038667  3
    635    634   1333   1324     1  0.0000000  1.6038667  3
    636    634   1333   1324     1  0.0000000  1.6038667  3
    638    639    651    652     1  0.0000000  0.6508444  3
    638    639    651    653     1  0.0000000  0.6508444  3
    638    642    654    655     1  0.0000000  0.6508444  3
    638    642    654    656     1  0.0000000  0.6508444  3
    638    645    648    649     1  0.0000000  0.6508444  3
    638    645    648    650     1  0.0000000  0.6508444  3
    639    638    642    643     1  0.0000000  1.2552000  3
    639    638    642    644     1  0.0000000  1.2552000  3
    639    638    645    646     1  0.0000000  1.2552000  3
    639    638    645    647     1  0.0000000  1.2552000  3
    639    651    663    664     1  0.0000000  0.6508444  3
    639    651    663    665     1  0.0000000  0.6508444  3
    640    639    638    642     1  0.0000000  1.2552000  3
    640    639    638    645     1  0.0000000  1.2552000  3
    640    639    651    663     1  0.0000000  0.6508444  3
    640    639    651    652     1  0.0000000  0.6508444  3
    640    639    651    653     1  0.0000000  0.6508444  3
    641    639    638    642     1  0.0000000  1.2552000  3
    641    639    638    645     1  0.0000000  1.2552000  3
    641    639    651    663     1  0.0000000  0.6508444  3
    641    639    651    652     1  0.0000000  0.6508444  3
    641    639    651    653     1  0.0000000  0.6508444  3
    642    638    645    646     1  0.0000000  1.2552000  3
    642    638    645    647     1  0.0000000  1.2552000  3
    642    654    660    661     1  0.0000000  0.6508444  3
    642    654    660    662     1  0.0000000  0.6508444  3
    643    642    638    645     1  0.0000000  1.2552000  3
    643    642    654    660     1  0.0000000  0.6508444  3
    643    642    654    655     1  0.0000000  0.6508444  3
    643    642    654    656     1  0.0000000  0.6508444  3
    644    642    638    645     1  0.0000000  1.2552000  3
    644    642    654    660     1  0.0000000  0.6508444  3
    644    642    654    655     1  0.0000000  0.6508444  3
    644    642    654    656     1  0.0000000  0.6508444  3
    645    648    657    658     1  0.0000000  0.6508444  3
    645    648    657    659     1  0.0000000  0.6508444  3
    646    645    648    657     1  0.0000000  0.6508444  3
    646    645    648    649     1  0.0000000  0.6508444  3
    646    645    648    650     1  0.0000000  0.6508444  3
    647    645    648    657     1  0.0000000  0.6508444  3
    647    645    648    649     1  0.0000000  0.6508444  3
    647    645    648    650     1  0.0000000  0.6508444  3
    649    648    657    666     1  0.0000000  1.0460000  1
    649    648    657    666     1  0.0000000  0.0000000  3
    649    648    657    658     1  0.0000000  0.6508444  3
    649    648    657    659     1  0.0000000  0.6508444  3
    650    648    657    666     1  0.0000000  1.0460000  1
    650    648    657    666     1  0.0000000  0.0000000  3
    650    648    657    658     1  0.0000000  0.6508444  3
    650    648    657    659     1  0.0000000  0.6508444  3
    652    651    663   1391     1  0.0000000  1.0460000  1
    652    651    663   1391     1  0.0000000  0.0000000  3
    652    651    663    664     1  0.0000000  0.6508444  3
    652    651    663    665     1  0.0000000  0.6508444  3
    653    651    663   1391     1  0.0000000  1.0460000  1
    653    651    663   1391     1  0.0000000  0.0000000  3
    653    651    663    664     1  0.0000000  0.6508444  3
    653    651    663    665     1  0.0000000  0.6508444  3
    655    654    660   1362     1  0.0000000  1.0460000  1
    655    654    660   1362     1  0.0000000  0.0000000  3
    655    654    660    661     1  0.0000000  0.6508444  3
    655    654    660    662     1  0.0000000  0.6508444  3
    656    654    660   1362     1  0.0000000  1.0460000  1
    656    654    660   1362     1  0.0000000  0.0000000  3
    656    654    660    661     1  0.0000000  0.6508444  3
    656    654    660    662     1  0.0000000  0.6508444  3
    660   1362   1353   1354     1  0.0000000  1.6038667  3
    660   1362   1353   1355     1  0.0000000  1.6038667  3
    661    660   1362   1353     1  0.0000000  1.6038667  3
    662    660   1362   1353     1  0.0000000  1.6038667  3
    663   1391   1382   1383     1  0.0000000  1.6038667  3
    663   1391   1382   1384     1  0.0000000  1.6038667  3
    664    663   1391   1382     1  0.0000000  1.6038667  3
    665    663   1391   1382     1  0.0000000  1.6038667  3
    667    668    680    681     1  0.0000000  0.6508444  3
    667    668    680    682     1  0.0000000  0.6508444  3
    667    671    683    684     1  0.0000000  0.6508444  3
    667    671    683    685     1  0.0000000  0.6508444  3
    667    674    677    678     1  0.0000000  0.6508444  3
    667    674    677    679     1  0.0000000  0.6508444  3
    668    667    671    672     1  0.0000000  1.2552000  3
    668    667    671    673     1  0.0000000  1.2552000  3
    668    667    674    675     1  0.0000000  1.2552000  3
    668    667    674    676     1  0.0000000  1.2552000  3
    668    680    692    693     1  0.0000000  0.6508444  3
    668    680    692    694     1  0.0000000  0.6508444  3
    669    668    667    671     1  0.0000000  1.2552000  3
    669    668    667    674     1  0.0000000  1.2552000  3
    669    668    680    692     1  0.0000000  0.6508444  3
    669    668    680    681     1  0.0000000  0.6508444  3
    669    668    680    682     1  0.0000000  0.6508444  3
    670    668    667    671     1  0.0000000  1.2552000  3
    670    668    667    674     1  0.0000000  1.2552000  3
    670    668    680    692     1  0.0000000  0.6508444  3
    670    668    680    681     1  0.0000000  0.6508444  3
    670    668    680    682     1  0.0000000  0.6508444  3
    671    667    674    675     1  0.0000000  1.2552000  3
    671    667    674    676     1  0.0000000  1.2552000  3
    671    683    689    690     1  0.0000000  0.6508444  3
    671    683    689    691     1  0.0000000  0.6508444  3
    672    671    667    674     1  0.0000000  1.2552000  3
    672    671    683    689     1  0.0000000  0.6508444  3
    672    671    683    684     1  0.0000000  0.6508444  3
    672    671    683    685     1  0.0000000  0.6508444  3
    673    671    667    674     1  0.0000000  1.2552000  3
    673    671    683    689     1  0.0000000  0.6508444  3
    673    671    683    684     1  0.0000000  0.6508444  3
    673    671    683    685     1  0.0000000  0.6508444  3
    674    677    686    687     1  0.0000000  0.6508444  3
    674    677    686    688     1  0.0000000  0.6508444  3
    675    674    677    686     1  0.0000000  0.6508444  3
    675    674    677    678     1  0.0000000  0.6508444  3
    675    674    677    679     1  0.0000000  0.6508444  3
    676    674    677    686     1  0.0000000  0.6508444  3
    676    674    677    678     1  0.0000000  0.6508444  3
    676    674    677    679     1  0.0000000  0.6508444  3
    678    677    686    695     1  0.0000000  1.0460000  1
    678    677    686    695     1  0.0000000  0.0000000  3
    678    677    686    687     1  0.0000000  0.6508444  3
    678    677    686    688     1  0.0000000  0.6508444  3
    679    677    686    695     1  0.0000000  1.0460000  1
    679    677    686    695     1  0.0000000  0.0000000  3
    679    677    686    687     1  0.0000000  0.6508444  3
    679    677    686    688     1  0.0000000  0.6508444  3
    681    680    692   1449     1  0.0000000  1.0460000  1
    681    680    692   1449     1  0.0000000  0.0000000  3
    681    680    692    693     1  0.0000000  0.6508444  3
    681    680    692    694     1  0.0000000  0.6508444  3
    682    680    692   1449     1  0.0000000  1.0460000  1
    682    680    692   1449     1  0.0000000  0.0000000  3
    682    680    692    693     1  0.0000000  0.6508444  3
    682    680    692    694     1  0.0000000  0.6508444  3
    684    683    689   1420     1  0.0000000  1.0460000  1
    684    683    689   1420     1  0.0000000  0.0000000  3
    684    683    689    690     1  0.0000000  0.6508444  3
    684    683    689    691     1  0.0000000  0.6508444  3
    685    683    689   1420     1  0.0000000  1.0460000  1
    685    683    689   1420     1  0.0000000  0.0000000  3
    685    683    689    690     1  0.0000000  0.6508444  3
    685    683    689    691     1  0.0000000  0.6508444  3
    689   1420   1411   1412     1  0.0000000  1.6038667  3
    689   1420   1411   1413     1  0.0000000  1.6038667  3
    690    689   1420   1411     1  0.0000000  1.6038667  3
    691    689   1420   1411     1  0.0000000  1.6038667  3
    692   1449   1440   1441     1  0.0000000  1.6038667  3
    692   1449   1440   1442     1  0.0000000  1.6038667  3
    693    692   1449   1440     1  0.0000000  1.6038667  3
    694    692   1449   1440     1  0.0000000  1.6038667  3
    696    697    709    710     1  0.0000000  0.6508444  3
    696    697    709    711     1  0.0000000  0.6508444  3
    696    700    712    713     1  0.0000000  0.6508444  3
    696    700    712    714     1  0.0000000  0.6508444  3
    696    703    706    707     1  0.0000000  0.6508444  3
    696    703    706    708     1  0.0000000  0.6508444  3
    697    696    700    701     1  0.0000000  1.2552000  3
    697    696    700    702     1  0.0000000  1.2552000  3
    697    696    703    704     1  0.0000000  1.2552000  3
    697    696    703    705     1  0.0000000  1.2552000  3
    697    709    721    722     1  0.0000000  0.6508444  3
    697    709    721    723     1  0.0000000  0.6508444  3
    698    697    696    700     1  0.0000000  1.2552000  3
    698    697    696    703     1  0.0000000  1.2552000  3
    698    697    709    721     1  0.0000000  0.6508444  3
    698    697    709    710     1  0.0000000  0.6508444  3
    698    697    709    711     1  0.0000000  0.6508444  3
    699    697    696    700     1  0.0000000  1.2552000  3
    699    697    696    703     1  0.0000000  1.2552000  3
    699    697    709    721     1  0.0000000  0.6508444  3
    699    697    709    710     1  0.0000000  0.6508444  3
    699    697    709    711     1  0.0000000  0.6508444  3
    700    696    703    704     1  0.0000000  1.2552000  3
    700    696    703    705     1  0.0000000  1.2552000  3
    700    712    718    719     1  0.0000000  0.6508444  3
    700    712    718    720     1  0.0000000  0.6508444  3
    701    700    696    703     1  0.0000000  1.2552000  3
    701    700    712    718     1  0.0000000  0.6508444  3
    701    700    712    713     1  0.0000000  0.6508444  3
    701    700    712    714     1  0.0000000  0.6508444  3
    702    700    696    703     1  0.0000000  1.2552000  3
    702    700    712    718     1  0.0000000  0.6508444  3
    702    700    712    713     1  0.0000000  0.6508444  3
    702    700    712    714     1  0.0000000  0.6508444  3
    703    706    715    716     1  0.0000000  0.6508444  3
    703    706    715    717     1  0.0000000  0.6508444  3
    704    703    706    715     1  0.0000000  0.6508444  3
    704    703    706    707     1  0.0000000  0.6508444  3
    704    703    706    708     1  0.0000000  0.6508444  3
    705    703    706    715     1  0.0000000  0.6508444  3
    705    703    706    707     1  0.0000000  0.6508444  3
    705    703    706    708     1  0.0000000  0.6508444  3
    707    706    715    724     1  0.0000000  1.0460000  1
    707    706    715    724     1  0.0000000  0.0000000  3
    707    706    715    716     1  0.0000000  0.6508444  3
    707    706    715    717     1  0.0000000  0.6508444  3
    708    706    715    724     1  0.0000000  1.0460000  1
    708    706    715    724     1  0.0000000  0.0000000  3
    708    706    715    716     1  0.0000000  0.6508444  3
    708    706    715    717     1  0.0000000  0.6508444  3
    710    709    721   1507     1  0.0000000  1.0460000  1
    710    709    721   1507     1  0.0000000  0.0000000  3
    710    709    721    722     1  0.0000000  0.6508444  3
    710    709    721    723     1  0.0000000  0.6508444  3
    711    709    721   1507     1  0.0000000  1.0460000  1
    711    709    721   1507     1  0.0000000  0.0000000  3
    711    709    721    722     1  0.0000000  0.6508444  3
    711    709    721    723     1  0.0000000  0.6508444  3
    713    712    718   1478     1  0.0000000  1.0460000  1
    713    712    718   1478     1  0.0000000  0.0000000  3
    713    712    718    719     1  0.0000000  0.6508444  3
    713    712    718    720     1  0.0000000  0.6508444  3
    714    712    718   1478     1  0.0000000  1.0460000  1
    714    712    718   1478     1  0.0000000  0.0000000  3
    714    712    718    719     1  0.0000000  0.6508444  3
    714    712    718    720     1  0.0000000  0.6508444  3
    718   1478   1469   1470     1  0.0000000  1.6038667  3
    718   1478   1469   1471     1  0.0000000  1.6038667  3
    719    718   1478   1469     1  0.0000000  1.6038667  3
    720    718   1478   1469     1  0.0000000  1.6038667  3
    721   1507   1498   1499     1  0.0000000  1.6038667  3
    721   1507   1498   1500     1  0.0000000  1.6038667  3
    722    721   1507   1498     1  0.0000000  1.6038667  3
    723    721   1507   1498     1  0.0000000  1.6038667  3
    725    726    738    739     1  0.0000000  0.6508444  3
    725    726    738    740     1  0.0000000  0.6508444  3
    725    729    741    742     1  0.0000000  0.6508444  3
    725    729    741    743     1  0.0000000  0.6508444  3
    725    732    735    736     1  0.0000000  0.6508444  3
    725    732    735    737     1  0.0000000  0.6508444  3
    726    725    729    730     1  0.0000000  1.2552000  3
    726    725    729    731     1  0.0000000  1.2552000  3
    726    725    732    733     1  0.0000000  1.2552000  3
    726    725    732    734     1  0.0000000  1.2552000  3
    726    738    750    751     1  0.0000000  0.6508444  3
    726    738    750    752     1  0.0000000  0.6508444  3
    727    726    725    729     1  0.0000000  1.2552000  3
    727    726    725    732     1  0.0000000  1.2552000  3
    727    726    738    750     1  0.0000000  0.6508444  3
    727    726    738    739     1  0.0000000  0.6508444  3
    727    726    738    740     1  0.0000000  0.6508444  3
    728    726    725    729     1  0.0000000  1.2552000  3
    728    726    725    732     1  0.0000000  1.2552000  3
    728    726    738    750     1  0.0000000  0.6508444  3
    728    726    738    739     1  0.0000000  0.6508444  3
    728    726    738    740     1  0.0000000  0.6508444  3
    729    725    732    733     1  0.0000000  1.2552000  3
    729    725    732    734     1  0.0000000  1.2552000  3
    729    741    747    748     1  0.0000000  0.6508444  3
    729    741    747    749     1  0.0000000  0.6508444  3
    730    729    725    732     1  0.0000000  1.2552000  3
    730    729    741    747     1  0.0000000  0.6508444  3
    730    729    741    742     1  0.0000000  0.6508444  3
    730    729    741    743     1  0.0000000  0.6508444  3
    731    729    725    732     1  0.0000000  1.2552000  3
    731    729    741    747     1  0.0000000  0.6508444  3
    731    729    741    742     1  0.0000000  0.6508444  3
    731    729    741    743     1  0.0000000  0.6508444  3
    732    735    744    745     1  0.0000000  0.6508444  3
    732    735    744    746     1  0.0000000  0.6508444  3
    733    732    735    744     1  0.0000000  0.6508444  3
    733    732    735    736     1  0.0000000  0.6508444  3
    733    732    735    737     1  0.0000000  0.6508444  3
    734    732    735    744     1  0.0000000  0.6508444  3
    734    732    735    736     1  0.0000000  0.6508444  3
    734    732    735    737     1  0.0000000  0.6508444  3
    736    735    744    753     1  0.0000000  1.0460000  1
    736    735    744    753     1  0.0000000  0.0000000  3
    736    735    744    745     1  0.0000000  0.6508444  3
    736    735    744    746     1  0.0000000  0.6508444  3
    737    735    744    753     1  0.0000000  1.0460000  1
    737    735    744    753     1  0.0000000  0.0000000  3
    737    735    744    745     1  0.0000000  0.6508444  3
    737    735    744    746     1  0.0000000  0.6508444  3
    739    738    750   1565     1  0.0000000  1.0460000  1
    739    738    750   1565     1  0.0000000  0.0000000  3
    739    738    750    751     1  0.0000000  0.6508444  3
    739    738    750    752     1  0.0000000  0.6508444  3
    740    738    750   1565     1  0.0000000  1.0460000  1
    740    738    750   1565     1  0.0000000  0.0000000  3
    740    738    750    751     1  0.0000000  0.6508444  3
    740    738    750    752     1  0.0000000  0.6508444  3
    742    741    747   1536     1  0.0000000  1.0460000  1
    742    741    747   1536     1  0.0000000  0.0000000  3
    742    741    747    748     1  0.0000000  0.6508444  3
    742    741    747    749     1  0.0000000  0.6508444  3
    743    741    747   1536     1  0.0000000  1.0460000  1
    743    741    747   1536     1  0.0000000  0.0000000  3
    743    741    747    748     1  0.0000000  0.6508444  3
    743    741    747    749     1  0.0000000  0.6508444  3
    747   1536   1527   1528     1  0.0000000  1.6038667  3
    747   1536   1527   1529     1  0.0000000  1.6038667  3
    748    747   1536   1527     1  0.0000000  1.6038667  3
    749    747   1536   1527     1  0.0000000  1.6038667  3
    750   1565   1556   1557     1  0.0000000  1.6038667  3
    750   1565   1556   1558     1  0.0000000  1.6038667  3
    751    750   1565   1556     1  0.0000000  1.6038667  3
    752    750   1565   1556     1  0.0000000  1.6038667  3
    754    755    767    768     1  0.0000000  0.6508444  3
    754    755    767    769     1  0.0000000  0.6508444  3
    754    758    770    771     1  0.0000000  0.6508444  3
    754    758    770    772     1  0.0000000  0.6508444  3
    754    761    764    765     1  0.0000000  0.6508444  3
    754    761    764    766     1  0.0000000  0.6508444  3
    755    754    758    759     1  0.0000000  1.2552000  3
    755    754    758    760     1  0.0000000  1.2552000  3
    755    754    761    762     1  0.0000000  1.2552000  3
    755    754    761    763     1  0.0000000  1.2552000  3
    755    767    779    780     1  0.0000000  0.6508444  3
    755    767    779    781     1  0.0000000  0.6508444  3
    756    755    754    758     1  0.0000000  1.2552000  3
    756    755    754    761     1  0.0000000  1.2552000  3
    756    755    767    779     1  0.0000000  0.6508444  3
    756    755    767    768     1  0.0000000  0.6508444  3
    756    755    767    769     1  0.0000000  0.6508444  3
    757    755    754    758     1  0.0000000  1.2552000  3
    757    755    754    761     1  0.0000000  1.2552000  3
    757    755    767    779     1  0.0000000  0.6508444  3
    757    755    767    768     1  0.0000000  0.6508444  3
    757    755    767    769     1  0.0000000  0.6508444  3
    758    754    761    762     1  0.0000000  1.2552000  3
    758    754    761    763     1  0.0000000  1.2552000  3
    758    770    776    777     1  0.0000000  0.6508444  3
    758    770    776    778     1  0.0000000  0.6508444  3
    759    758    754    761     1  0.0000000  1.2552000  3
    759    758    770    776     1  0.0000000  0.6508444  3
    759    758    770    771     1  0.0000000  0.6508444  3
    759    758    770    772     1  0.0000000  0.6508444  3
    760    758    754    761     1  0.0000000  1.2552000  3
    760    758    770    776     1  0.0000000  0.6508444  3
    760    758    770    771     1  0.0000000  0.6508444  3
    760    758    770    772     1  0.0000000  0.6508444  3
    761    764    773    774     1  0.0000000  0.6508444  3
    761    764    773    775     1  0.0000000  0.6508444  3
    762    761    764    773     1  0.0000000  0.6508444  3
    762    761    764    765     1  0.0000000  0.6508444  3
    762    761    764    766     1  0.0000000  0.6508444  3
    763    761    764    773     1  0.0000000  0.6508444  3
    763    761    764    765     1  0.0000000  0.6508444  3
    763    761    764    766     1  0.0000000  0.6508444  3
    765    764    773    782     1  0.0000000  1.0460000  1
    765    764    773    782     1  0.0000000  0.0000000  3
    765    764    773    774     1  0.0000000  0.6508444  3
    765    764    773    775     1  0.0000000  0.6508444  3
    766    764    773    782     1  0.0000000  1.0460000  1
    766    764    773    782     1  0.0000000  0.0000000  3
    766    764    773    774     1  0.0000000  0.6508444  3
    766    764    773    775     1  0.0000000  0.6508444  3
    768    767    779   1623     1  0.0000000  1.0460000  1
    768    767    779   1623     1  0.0000000  0.0000000  3
    768    767    779    780     1  0.0000000  0.6508444  3
    768    767    779    781     1  0.0000000  0.6508444  3
    769    767    779   1623     1  0.0000000  1.0460000  1
    769    767    779   1623     1  0.0000000  0.0000000  3
    769    767    779    780     1  0.0000000  0.6508444  3
    769    767    779    781     1  0.0000000  0.6508444  3
    771    770    776   1594     1  0.0000000  1.0460000  1
    771    770    776   1594     1  0.0000000  0.0000000  3
    771    770    776    777     1  0.0000000  0.6508444  3
    771    770    776    778     1  0.0000000  0.6508444  3
    772    770    776   1594     1  0.0000000  1.0460000  1
    772    770    776   1594     1  0.0000000  0.0000000  3
    772    770    776    777     1  0.0000000  0.6508444  3
    772    770    776    778     1  0.0000000  0.6508444  3
    776   1594   1585   1586     1  0.0000000  1.6038667  3
    776   1594   1585   1587     1  0.0000000  1.6038667  3
    777    776   1594   1585     1  0.0000000  1.6038667  3
    778    776   1594   1585     1  0.0000000  1.6038667  3
    779   1623   1614   1615     1  0.0000000  1.6038667  3
    779   1623   1614   1616     1  0.0000000  1.6038667  3
    780    779   1623   1614     1  0.0000000  1.6038667  3
    781    779   1623   1614     1  0.0000000  1.6038667  3
    783    784    796    797     1  0.0000000  0.6508444  3
    783    784    796    798     1  0.0000000  0.6508444  3
    783    787    799    800     1  0.0000000  0.6508444  3
    783    787    799    801     1  0.0000000  0.6508444  3
    783    790    793    794     1  0.0000000  0.6508444  3
    783    790    793    795     1  0.0000000  0.6508444  3
    784    783    787    788     1  0.0000000  1.2552000  3
    784    783    787    789     1  0.0000000  1.2552000  3
    784    783    790    791     1  0.0000000  1.2552000  3
    784    783    790    792     1  0.0000000  1.2552000  3
    784    796    808    809     1  0.0000000  0.6508444  3
    784    796    808    810     1  0.0000000  0.6508444  3
    785    784    783    787     1  0.0000000  1.2552000  3
    785    784    783    790     1  0.0000000  1.2552000  3
    785    784    796    808     1  0.0000000  0.6508444  3
    785    784    796    797     1  0.0000000  0.6508444  3
    785    784    796    798     1  0.0000000  0.6508444  3
    786    784    783    787     1  0.0000000  1.2552000  3
    786    784    783    790     1  0.0000000  1.2552000  3
    786    784    796    808     1  0.0000000  0.6508444  3
    786    784    796    797     1  0.0000000  0.6508444  3
    786    784    796    798     1  0.0000000  0.6508444  3
    787    783    790    791     1  0.0000000  1.2552000  3
    787    783    790    792     1  0.0000000  1.2552000  3
    787    799    805    806     1  0.0000000  0.6508444  3
    787    799    805    807     1  0.0000000  0.6508444  3
    788    787    783    790     1  0.0000000  1.2552000  3
    788    787    799    805     1  0.0000000  0.6508444  3
    788    787    799    800     1  0.0000000  0.6508444  3
    788    787    799    801     1  0.0000000  0.6508444  3
    789    787    783    790     1  0.0000000  1.2552000  3
    789    787    799    805     1  0.0000000  0.6508444  3
    789    787    799    800     1  0.0000000  0.6508444  3
    789    787    799    801     1  0.0000000  0.6508444  3
    790    793    802    803     1  0.0000000  0.6508444  3
    790    793    802    804     1  0.0000000  0.6508444  3
    791    790    793    802     1  0.0000000  0.6508444  3
    791    790    793    794     1  0.0000000  0.6508444  3
    791    790    793    795     1  0.0000000  0.6508444  3
    792    790    793    802     1  0.0000000  0.6508444  3
    792    790    793    794     1  0.0000000  0.6508444  3
    792    790    793    795     1  0.0000000  0.6508444  3
    794    793    802    811     1  0.0000000  1.0460000  1
    794    793    802    811     1  0.0000000  0.0000000  3
    794    793    802    803     1  0.0000000  0.6508444  3
    794    793    802    804     1  0.0000000  0.6508444  3
    795    793    802    811     1  0.0000000  1.0460000  1
    795    793    802    811     1  0.0000000  0.0000000  3
    795    793    802    803     1  0.0000000  0.6508444  3
    795    793    802    804     1  0.0000000  0.6508444  3
    797    796    808   1681     1  0.0000000  1.0460000  1
    797    796    808   1681     1  0.0000000  0.0000000  3
    797    796    808    809     1  0.0000000  0.6508444  3
    797    796    808    810     1  0.0000000  0.6508444  3
    798    796    808   1681     1  0.0000000  1.0460000  1
    798    796    808   1681     1  0.0000000  0.0000000  3
    798    796    808    809     1  0.0000000  0.6508444  3
    798    796    808    810     1  0.0000000  0.6508444  3
    800    799    805   1652     1  0.0000000  1.0460000  1
    800    799    805   1652     1  0.0000000  0.0000000  3
    800    799    805    806     1  0.0000000  0.6508444  3
    800    799    805    807     1  0.0000000  0.6508444  3
    801    799    805   1652     1  0.0000000  1.0460000  1
    801    799    805   1652     1  0.0000000  0.0000000  3
    801    799    805    806     1  0.0000000  0.6508444  3
    801    799    805    807     1  0.0000000  0.6508444  3
    805   1652   1643   1644     1  0.0000000  1.6038667  3
    805   1652   1643   1645     1  0.0000000  1.6038667  3
    806    805   1652   1643     1  0.0000000  1.6038667  3
    807    805   1652   1643     1  0.0000000  1.6038667  3
    808   1681   1672   1673     1  0.0000000  1.6038667  3
    808   1681   1672   1674     1  0.0000000  1.6038667  3
    809    808   1681   1672     1  0.0000000  1.6038667  3
    810    808   1681   1672     1  0.0000000  1.6038667  3
    812    813    825    826     1  0.0000000  0.6508444  3
    812    813    825    827     1  0.0000000  0.6508444  3
    812    816    828    829     1  0.0000000  0.6508444  3
    812    816    828    830     1  0.0000000  0.6508444  3
    812    819    822    823     1  0.0000000  0.6508444  3
    812    819    822    824     1  0.0000000  0.6508444  3
    813    812    816    817     1  0.0000000  1.2552000  3
    813    812    816    818     1  0.0000000  1.2552000  3
    813    812    819    820     1  0.0000000  1.2552000  3
    813    812    819    821     1  0.0000000  1.2552000  3
    813    825    837    838     1  0.0000000  0.6508444  3
    813    825    837    839     1  0.0000000  0.6508444  3
    814    813    812    816     1  0.0000000  1.2552000  3
    814    813    812    819     1  0.0000000  1.2552000  3
    814    813    825    837     1  0.0000000  0.6508444  3
    814    813    825    826     1  0.0000000  0.6508444  3
    814    813    825    827     1  0.0000000  0.6508444  3
    815    813    812    816     1  0.0000000  1.2552000  3
    815    813    812    819     1  0.0000000  1.2552000  3
    815    813    825    837     1  0.0000000  0.6508444  3
    815    813    825    826     1  0.0000000  0.6508444  3
    815    813    825    827     1  0.0000000  0.6508444  3
    816    812    819    820     1  0.0000000  1.2552000  3
    816    812    819    821     1  0.0000000  1.2552000  3
    816    828    834    835     1  0.0000000  0.6508444  3
    816    828    834    836     1  0.0000000  0.6508444  3
    817    816    812    819     1  0.0000000  1.2552000  3
    817    816    828    834     1  0.0000000  0.6508444  3
    817    816    828    829     1  0.0000000  0.6508444  3
    817    816    828    830     1  0.0000000  0.6508444  3
    818    816    812    819     1  0.0000000  1.2552000  3
    818    816    828    834     1  0.0000000  0.6508444  3
    818    816    828    829     1  0.0000000  0.6508444  3
    818    816    828    830     1  0.0000000  0.6508444  3
    819    822    831    832     1  0.0000000  0.6508444  3
    819    822    831    833     1  0.0000000  0.6508444  3
    820    819    822    831     1  0.0000000  0.6508444  3
    820    819    822    823     1  0.0000000  0.6508444  3
    820    819    822    824     1  0.0000000  0.6508444  3
    821    819    822    831     1  0.0000000  0.6508444  3
    821    819    822    823     1  0.0000000  0.6508444  3
    821    819    822    824     1  0.0000000  0.6508444  3
    823    822    831    840     1  0.0000000  1.0460000  1
    823    822    831    840     1  0.0000000  0.0000000  3
    823    822    831    832     1  0.0000000  0.6508444  3
    823    822    831    833     1  0.0000000  0.6508444  3
    824    822    831    840     1  0.0000000  1.0460000  1
    824    822    831    840     1  0.0000000  0.0000000  3
    824    822    831    832     1  0.0000000  0.6508444  3
    824    822    831    833     1  0.0000000  0.6508444  3
    826    825    837   1739     1  0.0000000  1.0460000  1
    826    825    837   1739     1  0.0000000  0.0000000  3
    826    825    837    838     1  0.0000000  0.6508444  3
    826    825    837    839     1  0.0000000  0.6508444  3
    827    825    837   1739     1  0.0000000  1.0460000  1
    827    825    837   1739     1  0.0000000  0.0000000  3
    827    825    837    838     1  0.0000000  0.6508444  3
    827    825    837    839     1  0.0000000  0.6508444  3
    829    828    834   1710     1  0.0000000  1.0460000  1
    829    828    834   1710     1  0.0000000  0.0000000  3
    829    828    834    835     1  0.0000000  0.6508444  3
    829    828    834    836     1  0.0000000  0.6508444  3
    830    828    834   1710     1  0.0000000  1.0460000  1
    830    828    834   1710     1  0.0000000  0.0000000  3
    830    828    834    835     1  0.0000000  0.6508444  3
    830    828    834    836     1  0.0000000  0.6508444  3
    834   1710   1701   1702     1  0.0000000  1.6038667  3
    834   1710   1701   1703     1  0.0000000  1.6038667  3
    835    834   1710   1701     1  0.0000000  1.6038667  3
    836    834   1710   1701     1  0.0000000  1.6038667  3
    837   1739   1730   1731     1  0.0000000  1.6038667  3
    837   1739   1730   1732     1  0.0000000  1.6038667  3
    838    837   1739   1730     1  0.0000000  1.6038667  3
    839    837   1739   1730     1  0.0000000  1.6038667  3
    841    842    854    855     1  0.0000000  0.6508444  3
    841    842    854    856     1  0.0000000  0.6508444  3
    841    845    857    858     1  0.0000000  0.6508444  3
    841    845    857    859     1  0.0000000  0.6508444  3
    841    848    851    852     1  0.0000000  0.6508444  3
    841    848    851    853     1  0.0000000  0.6508444  3
    842    841    845    846     1  0.0000000  1.2552000  3
    842    841    845    847     1  0.0000000  1.2552000  3
    842    841    848    849     1  0.0000000  1.2552000  3
    842    841    848    850     1  0.0000000  1.2552000  3
    842    854    866    867     1  0.0000000  0.6508444  3
    842    854    866    868     1  0.0000000  0.6508444  3
    843    842    841    845     1  0.0000000  1.2552000  3
    843    842    841    848     1  0.0000000  1.2552000  3
    843    842    854    866     1  0.0000000  0.6508444  3
    843    842    854    855     1  0.0000000  0.6508444  3
    843    842    854    856     1  0.0000000  0.6508444  3
    844    842    841    845     1  0.0000000  1.2552000  3
    844    842    841    848     1  0.0000000  1.2552000  3
    844    842    854    866     1  0.0000000  0.6508444  3
    844    842    854    855     1  0.0000000  0.6508444  3
    844    842    854    856     1  0.0000000  0.6508444  3
    845    841    848    849     1  0.0000000  1.2552000  3
    845    841    848    850     1  0.0000000  1.2552000  3
    845    857    863    864     1  0.0000000  0.6508444  3
    845    857    863    865     1  0.0000000  0.6508444  3
    846    845    841    848     1  0.0000000  1.2552000  3
    846    845    857    863     1  0.0000000  0.6508444  3
    846    845    857    858     1  0.0000000  0.6508444  3
    846    845    857    859     1  0.0000000  0.6508444  3
    847    845    841    848     1  0.0000000  1.2552000  3
    847    845    857    863     1  0.0000000  0.6508444  3
    847    845    857    858     1  0.0000000  0.6508444  3
    847    845    857    859     1  0.0000000  0.6508444  3
    848    851    860    861     1  0.0000000  0.6508444  3
    848    851    860    862     1  0.0000000  0.6508444  3
    849    848    851    860     1  0.0000000  0.6508444  3
    849    848    851    852     1  0.0000000  0.6508444  3
    849    848    851    853     1  0.0000000  0.6508444  3
    850    848    851    860     1  0.0000000  0.6508444  3
    850    848    851    852     1  0.0000000  0.6508444  3
    850    848    851    853     1  0.0000000  0.6508444  3
    852    851    860    869     1  0.0000000  1.0460000  1
    852    851    860    869     1  0.0000000  0.0000000  3
    852    851    860    861     1  0.0000000  0.6508444  3
    852    851    860    862     1  0.0000000  0.6508444  3
    853    851    860    869     1  0.0000000  1.0460000  1
    853    851    860    869     1  0.0000000  0.0000000  3
    853    851    860    861     1  0.0000000  0.6508444  3
    853    851    860    862     1  0.0000000  0.6508444  3
    855    854    866   1797     1  0.0000000  1.0460000  1
    855    854    866   1797     1  0.0000000  0.0000000  3
    855    854    866    867     1  0.0000000  0.6508444  3
    855    854    866    868     1  0.0000000  0.6508444  3
    856    854    866   1797     1  0.0000000  1.0460000  1
    856    854    866   1797     1  0.0000000  0.0000000  3
    856    854    866    867     1  0.0000000  0.6508444  3
    856    854    866    868     1  0.0000000  0.6508444  3
    858    857    863   1768     1  0.0000000  1.0460000  1
    858    857    863   1768     1  0.0000000  0.0000000  3
    858    857    863    864     1  0.0000000  0.6508444  3
    858    857    863    865     1  0.0000000  0.6508444  3
    859    857    863   1768     1  0.0000000  1.0460000  1
    859    857    863   1768     1  0.0000000  0.0000000  3
    859    857    863    864     1  0.0000000  0.6508444  3
    859    857    863    865     1  0.0000000  0.6508444  3
    863   1768   1759   1760     1  0.0000000  1.6038667  3
    863   1768   1759   1761     1  0.0000000  1.6038667  3
    864    863   1768   1759     1  0.0000000  1.6038667  3
    865    863   1768   1759     1  0.0000000  1.6038667  3
    866   1797   1788   1789     1  0.0000000  1.6038667  3
    866   1797   1788   1790     1  0.0000000  1.6038667  3
    867    866   1797   1788     1  0.0000000  1.6038667  3
    868    866   1797   1788     1  0.0000000  1.6038667  3
    870    871    883    884     1  0.0000000  0.6508444  3
    870    871    883    885     1  0.0000000  0.6508444  3
    870    874    886    887     1  0.0000000  0.6508444  3
    870    874    886    888     1  0.0000000  0.6508444  3
    870    877    880    881     1  0.0000000  0.6508444  3
    870    877    880    882     1  0.0000000  0.6508444  3
    871    870    874    875     1  0.0000000  1.2552000  3
    871    870    874    876     1  0.0000000  1.2552000  3
    871    870    877    878     1  0.0000000  1.2552000  3
    871    870    877    879     1  0.0000000  1.2552000  3
    871    883    895    896     1  0.0000000  0.6508444  3
    871    883    895    897     1  0.0000000  0.6508444  3
    872    871    870    874     1  0.0000000  1.2552000  3
    872    871    870    877     1  0.0000000  1.2552000  3
    872    871    883    895     1  0.0000000  0.6508444  3
    872    871    883    884     1  0.0000000  0.6508444  3
    872    871    883    885     1  0.0000000  0.6508444  3
    873    871    870    874     1  0.0000000  1.2552000  3
    873    871    870    877     1  0.0000000  1.2552000  3
    873    871    883    895     1  0.0000000  0.6508444  3
    873    871    883    884     1  0.0000000  0.6508444  3
    873    871    883    885     1  0.0000000  0.6508444  3
    874    870    877    878     1  0.0000000  1.2552000  3
    874    870    877    879     1  0.0000000  1.2552000  3
    874    886    892    893     1  0.0000000  0.6508444  3
    874    886    892    894     1  0.0000000  0.6508444  3
    875    874    870    877     1  0.0000000  1.2552000  3
    875    874    886    892     1  0.0000000  0.6508444  3
    875    874    886    887     1  0.0000000  0.6508444  3
    875    874    886    888     1  0.0000000  0.6508444  3
    876    874    870    877     1  0.0000000  1.2552000  3
    876    874    886    892     1  0.0000000  0.6508444  3
    876    874    886    887     1  0.0000000  0.6508444  3
    876    874    886    888     1  0.0000000  0.6508444  3
    877    880    889    890     1  0.0000000  0.6508444  3
    877    880    889    891     1  0.0000000  0.6508444  3
    878    877    880    889     1  0.0000000  0.6508444  3
    878    877    880    881     1  0.0000000  0.6508444  3
    878    877    880    882     1  0.0000000  0.6508444  3
    879    877    880    889     1  0.0000000  0.6508444  3
    879    877    880    881     1  0.0000000  0.6508444  3
    879    877    880    882     1  0.0000000  0.6508444  3
    881    880    889    898     1  0.0000000  1.0460000  1
    881    880    889    898     1  0.0000000  0.0000000  3
    881    880    889    890     1  0.0000000  0.6508444  3
    881    880    889    891     1  0.0000000  0.6508444  3
    882    880    889    898     1  0.0000000  1.0460000  1
    882    880    889    898     1  0.0000000  0.0000000  3
    882    880    889    890     1  0.0000000  0.6508444  3
    882    880    889    891     1  0.0000000  0.6508444  3
    884    883    895   1855     1  0.0000000  1.0460000  1
    884    883    895   1855     1  0.0000000  0.0000000  3
    884    883    895    896     1  0.0000000  0.6508444  3
    884    883    895    897     1  0.0000000  0.6508444  3
    885    883    895   1855     1  0.0000000  1.0460000  1
    885    883    895   1855     1  0.0000000  0.0000000  3
    885    883    895    896     1  0.0000000  0.6508444  3
    885    883    895    897     1  0.0000000  0.6508444  3
    887    886    892   1826     1  0.0000000  1.0460000  1
    887    886    892   1826     1  0.0000000  0.0000000  3
    887    886    892    893     1  0.0000000  0.6508444  3
    887    886    892    894     1  0.0000000  0.6508444  3
    888    886    892   1826     1  0.0000000  1.0460000  1
    888    886    892   1826     1  0.0000000  0.0000000  3
    888    886    892    893     1  0.0000000  0.6508444  3
    888    886    892    894     1  0.0000000  0.6508444  3
    892   1826   1817   1818     1  0.0000000  1.6038667  3
    892   1826   1817   1819     1  0.0000000  1.6038667  3
    893    892   1826   1817     1  0.0000000  1.6038667  3
    894    892   1826   1817     1  0.0000000  1.6038667  3
    895   1855   1846   1847     1  0.0000000  1.6038667  3
    895   1855   1846   1848     1  0.0000000  1.6038667  3
    896    895   1855   1846     1  0.0000000  1.6038667  3
    897    895   1855   1846     1  0.0000000  1.6038667  3
    899    900    912    913     1  0.0000000  0.6508444  3
    899    900    912    914     1  0.0000000  0.6508444  3
    899    903    915    916     1  0.0000000  0.6508444  3
    899    903    915    917     1  0.0000000  0.6508444  3
    899    906    909    910     1  0.0000000  0.6508444  3
    899    906    909    911     1  0.0000000  0.6508444  3
    900    899    903    904     1  0.0000000  1.2552000  3
    900    899    903    905     1  0.0000000  1.2552000  3
    900    899    906    907     1  0.0000000  1.2552000  3
    900    899    906    908     1  0.0000000  1.2552000  3
    900    912    924    925     1  0.0000000  0.6508444  3
    900    912    924    926     1  0.0000000  0.6508444  3
    901    900    899    903     1  0.0000000  1.2552000  3
    901    900    899    906     1  0.0000000  1.2552000  3
    901    900    912    924     1  0.0000000  0.6508444  3
    901    900    912    913     1  0.0000000  0.6508444  3
    901    900    912    914     1  0.0000000  0.6508444  3
    902    900    899    903     1  0.0000000  1.2552000  3
    902    900    899    906     1  0.0000000  1.2552000  3
    902    900    912    924     1  0.0000000  0.6508444  3
    902    900    912    913     1  0.0000000  0.6508444  3
    902    900    912    914     1  0.0000000  0.6508444  3
    903    899    906    907     1  0.0000000  1.2552000  3
    903    899    906    908     1  0.0000000  1.2552000  3
    903    915    921    922     1  0.0000000  0.6508444  3
    903    915    921    923     1  0.0000000  0.6508444  3
    904    903    899    906     1  0.0000000  1.2552000  3
    904    903    915    921     1  0.0000000  0.6508444  3
    904    903    915    916     1  0.0000000  0.6508444  3
    904    903    915    917     1  0.0000000  0.6508444  3
    905    903    899    906     1  0.0000000  1.2552000  3
    905    903    915    921     1  0.0000000  0.6508444  3
    905    903    915    916     1  0.0000000  0.6508444  3
    905    903    915    917     1  0.0000000  0.6508444  3
    906    909    918    919     1  0.0000000  0.6508444  3
    906    909    918    920     1  0.0000000  0.6508444  3
    907    906    909    918     1  0.0000000  0.6508444  3
    907    906    909    910     1  0.0000000  0.6508444  3
    907    906    909    911     1  0.0000000  0.6508444  3
    908    906    909    918     1  0.0000000  0.6508444  3
    908    906    909    910     1  0.0000000  0.6508444  3
    908    906    909    911     1  0.0000000  0.6508444  3
    910    909    918    927     1  0.0000000  1.0460000  1
    910    909    918    927     1  0.0000000  0.0000000  3
    910    909    918    919     1  0.0000000  0.6508444  3
    910    909    918    920     1  0.0000000  0.6508444  3
    911    909    918    927     1  0.0000000  1.0460000  1
    911    909    918    927     1  0.0000000  0.0000000  3
    911    909    918    919     1  0.0000000  0.6508444  3
    911    909    918    920     1  0.0000000  0.6508444  3
    913    912    924   1913     1  0.0000000  1.0460000  1
    913    912    924   1913     1  0.0000000  0.0000000  3
    913    912    924    925     1  0.0000000  0.6508444  3
    913    912    924    926     1  0.0000000  0.6508444  3
    914    912    924   1913     1  0.0000000  1.0460000  1
    914    912    924   1913     1  0.0000000  0.0000000  3
    914    912    924    925     1  0.0000000  0.6508444  3
    914    912    924    926     1  0.0000000  0.6508444  3
    916    915    921   1884     1  0.0000000  1.0460000  1
    916    915    921   1884     1  0.0000000  0.0000000  3
    916    915    921    922     1  0.0000000  0.6508444  3
    916    915    921    923     1  0.0000000  0.6508444  3
    917    915    921   1884     1  0.0000000  1.0460000  1
    917    915    921   1884     1  0.0000000  0.0000000  3
    917    915    921    922     1  0.0000000  0.6508444  3
    917    915    921    923     1  0.0000000  0.6508444  3
    921   1884   1875   1876     1  0.0000000  1.6038667  3
    921   1884   1875   1877     1  0.0000000  1.6038667  3
    922    921   1884   1875     1  0.0000000  1.6038667  3
    923    921   1884   1875     1  0.0000000  1.6038667  3
    924   1913   1904   1905     1  0.0000000  1.6038667  3
    924   1913   1904   1906     1  0.0000000  1.6038667  3
    925    924   1913   1904     1  0.0000000  1.6038667  3
    926    924   1913   1904     1  0.0000000  1.6038667  3
    928    929    941    942     1  0.0000000  0.6508444  3
    928    929    941    943     1  0.0000000  0.6508444  3
    928    932    944    945     1  0.0000000  0.6508444  3
    928    932    944    946     1  0.0000000  0.6508444  3
    928    935    938    939     1  0.0000000  0.6508444  3
    928    935    938    940     1  0.0000000  0.6508444  3
    929    928    932    933     1  0.0000000  1.2552000  3
    929    928    932    934     1  0.0000000  1.2552000  3
    929    928    935    936     1  0.0000000  1.2552000  3
    929    928    935    937     1  0.0000000  1.2552000  3
    929    941    953    954     1  0.0000000  0.6508444  3
    929    941    953    955     1  0.0000000  0.6508444  3
    930    929    928    932     1  0.0000000  1.2552000  3
    930    929    928    935     1  0.0000000  1.2552000  3
    930    929    941    953     1  0.0000000  0.6508444  3
    930    929    941    942     1  0.0000000  0.6508444  3
    930    929    941    943     1  0.0000000  0.6508444  3
    931    929    928    932     1  0.0000000  1.2552000  3
    931    929    928    935     1  0.0000000  1.2552000  3
    931    929    941    953     1  0.0000000  0.6508444  3
    931    929    941    942     1  0.0000000  0.6508444  3
    931    929    941    943     1  0.0000000  0.6508444  3
    932    928    935    936     1  0.0000000  1.2552000  3
    932    928    935    937     1  0.0000000  1.2552000  3
    932    944    950    951     1  0.0000000  0.6508444  3
    932    944    950    952     1  0.0000000  0.6508444  3
    933    932    928    935     1  0.0000000  1.2552000  3
    933    932    944    950     1  0.0000000  0.6508444  3
    933    932    944    945     1  0.0000000  0.6508444  3
    933    932    944    946     1  0.0000000  0.6508444  3
    934    932    928    935     1  0.0000000  1.2552000  3
    934    932    944    950     1  0.0000000  0.6508444  3
    934    932    944    945     1  0.0000000  0.6508444  3
    934    932    944    946     1  0.0000000  0.6508444  3
    935    938    947    948     1  0.0000000  0.6508444  3
    935    938    947    949     1  0.0000000  0.6508444  3
    936    935    938    947     1  0.0000000  0.6508444  3
    936    935    938    939     1  0.0000000  0.6508444  3
    936    935    938    940     1  0.0000000  0.6508444  3
    937    935    938    947     1  0.0000000  0.6508444  3
    937    935    938    939     1  0.0000000  0.6508444  3
    937    935    938    940     1  0.0000000  0.6508444  3
    939    938    947    956     1  0.0000000  1.0460000  1
    939    938    947    956     1  0.0000000  0.0000000  3
    939    938    947    948     1  0.0000000  0.6508444  3
    939    938    947    949     1  0.0000000  0.6508444  3
    940    938    947    956     1  0.0000000  1.0460000  1
    940    938    947    956     1  0.0000000  0.0000000  3
    940    938    947    948     1  0.0000000  0.6508444  3
    940    938    947    949     1  0.0000000  0.6508444  3
    942    941    953   1971     1  0.0000000  1.0460000  1
    942    941    953   1971     1  0.0000000  0.0000000  3
    942    941    953    954     1  0.0000000  0.6508444  3
    942    941    953    955     1  0.0000000  0.6508444  3
    943    941    953   1971     1  0.0000000  1.0460000  1
    943    941    953   1971     1  0.0000000  0.0000000  3
    943    941    953    954     1  0.0000000  0.6508444  3
    943    941    953    955     1  0.0000000  0.6508444  3
    945    944    950   1942     1  0.0000000  1.0460000  1
    945    944    950   1942     1  0.0000000  0.0000000  3
    945    944    950    951     1  0.0000000  0.6508444  3
    945    944    950    952     1  0.0000000  0.6508444  3
    946    944    950   1942     1  0.0000000  1.0460000  1
    946    944    950   1942     1  0.0000000  0.0000000  3
    946    944    950    951     1  0.0000000  0.6508444  3
    946    944    950    952     1  0.0000000  0.6508444  3
    950   1942   1933   1934     1  0.0000000  1.6038667  3
    950   1942   1933   1935     1  0.0000000  1.6038667  3
    951    950   1942   1933     1  0.0000000  1.6038667  3
    952    950   1942   1933     1  0.0000000  1.6038667  3
    953   1971   1962   1963     1  0.0000000  1.6038667  3
    953   1971   1962   1964     1  0.0000000  1.6038667  3
    954    953   1971   1962     1  0.0000000  1.6038667  3
    955    953   1971   1962     1  0.0000000  1.6038667  3
    957    958    970    971     1  0.0000000  0.6508444  3
    957    958    970    972     1  0.0000000  0.6508444  3
    957    961    973    974     1  0.0000000  0.6508444  3
    957    961    973    975     1  0.0000000  0.6508444  3
    957    964    967    968     1  0.0000000  0.6508444  3
    957    964    967    969     1  0.0000000  0.6508444  3
    958    957    961    962     1  0.0000000  1.2552000  3
    958    957    961    963     1  0.0000000  1.2552000  3
    958    957    964    965     1  0.0000000  1.2552000  3
    958    957    964    966     1  0.0000000  1.2552000  3
    958    970    982    983     1  0.0000000  0.6508444  3
    958    970    982    984     1  0.0000000  0.6508444  3
    959    958    957    961     1  0.0000000  1.2552000  3
    959    958    957    964     1  0.0000000  1.2552000  3
    959    958    970    982     1  0.0000000  0.6508444  3
    959    958    970    971     1  0.0000000  0.6508444  3
    959    958    970    972     1  0.0000000  0.6508444  3
    960    958    957    961     1  0.0000000  1.2552000  3
    960    958    957    964     1  0.0000000  1.2552000  3
    960    958    970    982     1  0.0000000  0.6508444  3
    960    958    970    971     1  0.0000000  0.6508444  3
    960    958    970    972     1  0.0000000  0.6508444  3
    961    957    964    965     1  0.0000000  1.2552000  3
    961    957    964    966     1  0.0000000  1.2552000  3
    961    973    979    980     1  0.0000000  0.6508444  3
    961    973    979    981     1  0.0000000  0.6508444  3
    962    961    957    964     1  0.0000000  1.2552000  3
    962    961    973    979     1  0.0000000  0.6508444  3
    962    961    973    974     1  0.0000000  0.6508444  3
    962    961    973    975     1  0.0000000  0.6508444  3
    963    961    957    964     1  0.0000000  1.2552000  3
    963    961    973    979     1  0.0000000  0.6508444  3
    963    961    973    974     1  0.0000000  0.6508444  3
    963    961    973    975     1  0.0000000  0.6508444  3
    964    967    976    977     1  0.0000000  0.6508444  3
    964    967    976    978     1  0.0000000  0.6508444  3
    965    964    967    976     1  0.0000000  0.6508444  3
    965    964    967    968     1  0.0000000  0.6508444  3
    965    964    967    969     1  0.0000000  0.6508444  3
    966    964    967    976     1  0.0000000  0.6508444  3
    966    964    967    968     1  0.0000000  0.6508444  3
    966    964    967    969     1  0.0000000  0.6508444  3
    968    967    976    985     1  0.0000000  1.0460000  1
    968    967    976    985     1  0.0000000  0.0000000  3
    968    967    976    977     1  0.0000000  0.6508444  3
    968    967    976    978     1  0.0000000  0.6508444  3
    969    967    976    985     1  0.0000000  1.0460000  1
    969    967    976    985     1  0.0000000  0.0000000  3
    969    967    976    977     1  0.0000000  0.6508444  3
    969    967    976    978     1  0.0000000  0.6508444  3
    971    970    982   2029     1  0.0000000  1.0460000  1
    971    970    982   2029     1  0.0000000  0.0000000  3
    971    970    982    983     1  0.0000000  0.6508444  3
    971    970    982    984     1  0.0000000  0.6508444  3
    972    970    982   2029     1  0.0000000  1.0460000  1
    972    970    982   2029     1  0.0000000  0.0000000  3
    972    970    982    983     1  0.0000000  0.6508444  3
    972    970    982    984     1  0.0000000  0.6508444  3
    974    973    979   2000     1  0.0000000  1.0460000  1
    974    973    979   2000     1  0.0000000  0.0000000  3
    974    973    979    980     1  0.0000000  0.6508444  3
    974    973    979    981     1  0.0000000  0.6508444  3
    975    973    979   2000     1  0.0000000  1.0460000  1
    975    973    979   2000     1  0.0000000  0.0000000  3
    975    973    979    980     1  0.0000000  0.6508444  3
    975    973    979    981     1  0.0000000  0.6508444  3
    979   2000   1991   1992     1  0.0000000  1.6038667  3
    979   2000   1991   1993     1  0.0000000  1.6038667  3
    980    979   2000   1991     1  0.0000000  1.6038667  3
    981    979   2000   1991     1  0.0000000  1.6038667  3
    982   2029   2020   2021     1  0.0000000  1.6038667  3
    982   2029   2020   2022     1  0.0000000  1.6038667  3
    983    982   2029   2020     1  0.0000000  1.6038667  3
    984    982   2029   2020     1  0.0000000  1.6038667  3
    986    987    999   1000     1  0.0000000  0.6508444  3
    986    987    999   1001     1  0.0000000  0.6508444  3
    986    990   1002   1003     1  0.0000000  0.6508444  3
    986    990   1002   1004     1  0.0000000  0.6508444  3
    986    993    996    997     1  0.0000000  0.6508444  3
    986    993    996    998     1  0.0000000  0.6508444  3
    987    986    990    991     1  0.0000000  1.2552000  3
    987    986    990    992     1  0.0000000  1.2552000  3
    987    986    993    994     1  0.0000000  1.2552000  3
    987    986    993    995     1  0.0000000  1.2552000  3
    987    999   1011   1012     1  0.0000000  0.6508444  3
    987    999   1011   1013     1  0.0000000  0.6508444  3
    988    987    986    990     1  0.0000000  1.2552000  3
    988    987    986    993     1  0.0000000  1.2552000  3
    988    987    999   1011     1  0.0000000  0.6508444  3
    988    987    999   1000     1  0.0000000  0.6508444  3
    988    987    999   1001     1  0.0000000  0.6508444  3
    989    987    986    990     1  0.0000000  1.2552000  3
    989    987    986    993     1  0.0000000  1.2552000  3
    989    987    999   1011     1  0.0000000  0.6508444  3
    989    987    999   1000     1  0.0000000  0.6508444  3
    989    987    999   1001     1  0.0000000  0.6508444  3
    990    986    993    994     1  0.0000000  1.2552000  3
    990    986    993    995     1  0.0000000  1.2552000  3
    990   1002   1008   1009     1  0.0000000  0.6508444  3
    990   1002   1008   1010     1  0.0000000  0.6508444  3
    991    990    986    993     1  0.0000000  1.2552000  3
    991    990   1002   1008     1  0.0000000  0.6508444  3
    991    990   1002   1003     1  0.0000000  0.6508444  3
    991    990   1002   1004     1  0.0000000  0.6508444  3
    992    990    986    993     1  0.0000000  1.2552000  3
    992    990   1002   1008     1  0.0000000  0.6508444  3
    992    990   1002   1003     1  0.0000000  0.6508444  3
    992    990   1002   1004     1  0.0000000  0.6508444  3
    993    996   1005   1006     1  0.0000000  0.6508444  3
    993    996   1005   1007     1  0.0000000  0.6508444  3
    994    993    996   1005     1  0.0000000  0.6508444  3
    994    993    996    997     1  0.0000000  0.6508444  3
    994    993    996    998     1  0.0000000  0.6508444  3
    995    993    996   1005     1  0.0000000  0.6508444  3
    995    993    996    997     1  0.0000000  0.6508444  3
    995    993    996    998     1  0.0000000  0.6508444  3
    997    996   1005   1014     1  0.0000000  1.0460000  1
    997    996   1005   1014     1  0.0000000  0.0000000  3
    997    996   1005   1006     1  0.0000000  0.6508444  3
    997    996   1005   1007     1  0.0000000  0.6508444  3
    998    996   1005   1014     1  0.0000000  1.0460000  1
    998    996   1005   1014     1  0.0000000  0.0000000  3
    998    996   1005   1006     1  0.0000000  0.6508444  3
    998    996   1005   1007     1  0.0000000  0.6508444  3
   1000    999   1011   2087     1  0.0000000  1.0460000  1
   1000    999   1011   2087     1  0.0000000  0.0000000  3
   1000    999   1011   1012     1  0.0000000  0.6508444  3
   1000    999   1011   1013     1  0.0000000  0.6508444  3
   1001    999   1011   2087     1  0.0000000  1.0460000  1
   1001    999   1011   2087     1  0.0000000  0.0000000  3
   1001    999   1011   1012     1  0.0000000  0.6508444  3
   1001    999   1011   1013     1  0.0000000  0.6508444  3
   1003   1002   1008   2058     1  0.0000000  1.0460000  1
   1003   1002   1008   2058     1  0.0000000  0.0000000  3
   1003   1002   1008   1009     1  0.0000000  0.6508444  3
   1003   1002   1008   1010     1  0.0000000  0.6508444  3
   1004   1002   1008   2058     1  0.0000000  1.0460000  1
   1004   1002   1008   2058     1  0.0000000  0.0000000  3
   1004   1002   1008   1009     1  0.0000000  0.6508444  3
   1004   1002   1008   1010     1  0.0000000  0.6508444  3
   1008   2058   2049   2050     1  0.0000000  1.6038667  3
   1008   2058   2049   2051     1  0.0000000  1.6038667  3
   1009   1008   2058   2049     1  0.0000000  1.6038667  3
   1010   1008   2058   2049     1  0.0000000  1.6038667  3
   1011   2087   2078   2079     1  0.0000000  1.6038667  3
   1011   2087   2078   2080     1  0.0000000  1.6038667  3
   1012   1011   2087   2078     1  0.0000000  1.6038667  3
   1013   1011   2087   2078     1  0.0000000  1.6038667  3
   1015   1016   1028   1029     1  0.0000000  0.6508444  3
   1015   1016   1028   1030     1  0.0000000  0.6508444  3
   1015   1019   1031   1032     1  0.0000000  0.6508444  3
   1015   1019   1031   1033     1  0.0000000  0.6508444  3
   1015   1022   1025   1026     1  0.0000000  0.6508444  3
   1015   1022   1025   1027     1  0.0000000  0.6508444  3
   1016   1015   1019   1020     1  0.0000000  1.2552000  3
   1016   1015   1019   1021     1  0.0000000  1.2552000  3
   1016   1015   1022   1023     1  0.0000000  1.2552000  3
   1016   1015   1022   1024     1  0.0000000  1.2552000  3
   1016   1028   1040   1041     1  0.0000000  0.6508444  3
   1016   1028   1040   1042     1  0.0000000  0.6508444  3
   1017   1016   1015   1019     1  0.0000000  1.2552000  3
   1017   1016   1015   1022     1  0.0000000  1.2552000  3
   1017   1016   1028   1040     1  0.0000000  0.6508444  3
   1017   1016   1028   1029     1  0.0000000  0.6508444  3
   1017   1016   1028   1030     1  0.0000000  0.6508444  3
   1018   1016   1015   1019     1  0.0000000  1.2552000  3
   1018   1016   1015   1022     1  0.0000000  1.2552000  3
   1018   1016   1028   1040     1  0.0000000  0.6508444  3
   1018   1016   1028   1029     1  0.0000000  0.6508444  3
   1018   1016   1028   1030     1  0.0000000  0.6508444  3
   1019   1015   1022   1023     1  0.0000000  1.2552000  3
   1019   1015   1022   1024     1  0.0000000  1.2552000  3
   1019   1031   1037   1038     1  0.0000000  0.6508444  3
   1019   1031   1037   1039     1  0.0000000  0.6508444  3
   1020   1019   1015   1022     1  0.0000000  1.2552000  3
   1020   1019   1031   1037     1  0.0000000  0.6508444  3
   1020   1019   1031   1032     1  0.0000000  0.6508444  3
   1020   1019   1031   1033     1  0.0000000  0.6508444  3
   1021   1019   1015   1022     1  0.0000000  1.2552000  3
   1021   1019   1031   1037     1  0.0000000  0.6508444  3
   1021   1019   1031   1032     1  0.0000000  0.6508444  3
   1021   1019   1031   1033     1  0.0000000  0.6508444  3
   1022   1025   1034   1035     1  0.0000000  0.6508444  3
   1022   1025   1034   1036     1  0.0000000  0.6508444  3
   1023   1022   1025   1034     1  0.0000000  0.6508444  3
   1023   1022   1025   1026     1  0.0000000  0.6508444  3
   1023   1022   1025   1027     1  0.0000000  0.6508444  3
   1024   1022   1025   1034     1  0.0000000  0.6508444  3
   1024   1022   1025   1026     1  0.0000000  0.6508444  3
   1024   1022   1025   1027     1  0.0000000  0.6508444  3
   1026   1025   1034   1043     1  0.0000000  1.0460000  1
   1026   1025   1034   1043     1  0.0000000  0.0000000  3
   1026   1025   1034   1035     1  0.0000000  0.6508444  3
   1026   1025   1034   1036     1  0.0000000  0.6508444  3
   1027   1025   1034   1043     1  0.0000000  1.0460000  1
   1027   1025   1034   1043     1  0.0000000  0.0000000  3
   1027   1025   1034   1035     1  0.0000000  0.6508444  3
   1027   1025   1034   1036     1  0.0000000  0.6508444  3
   1029   1028   1040   2145     1  0.0000000  1.0460000  1
   1029   1028   1040   2145     1  0.0000000  0.0000000  3
   1029   1028   1040   1041     1  0.0000000  0.6508444  3
   1029   1028   1040   1042     1  0.0000000  0.6508444  3
   1030   1028   1040   2145     1  0.0000000  1.0460000  1
   1030   1028   1040   2145     1  0.0000000  0.0000000  3
   1030   1028   1040   1041     1  0.0000000  0.6508444  3
   1030   1028   1040   1042     1  0.0000000  0.6508444  3
   1032   1031   1037   2116     1  0.0000000  1.0460000  1
   1032   1031   1037   2116     1  0.0000000  0.0000000  3
   1032   1031   1037   1038     1  0.0000000  0.6508444  3
   1032   1031   1037   1039     1  0.0000000  0.6508444  3
   1033   1031   1037   2116     1  0.0000000  1.0460000  1
   1033   1031   1037   2116     1  0.0000000  0.0000000  3
   1033   1031   1037   1038     1  0.0000000  0.6508444  3
   1033   1031   1037   1039     1  0.0000000  0.6508444  3
   1037   2116   2107   2108     1  0.0000000  1.6038667  3
   1037   2116   2107   2109     1  0.0000000  1.6038667  3
   1038   1037   2116   2107     1  0.0000000  1.6038667  3
   1039   1037   2116   2107     1  0.0000000  1.6038667  3
   1040   2145   2136   2137     1  0.0000000  1.6038667  3
   1040   2145   2136   2138     1  0.0000000  1.6038667  3
   1041   1040   2145   2136     1  0.0000000  1.6038667  3
   1042   1040   2145   2136     1  0.0000000  1.6038667  3
   1044   1045   1057   1058     1  0.0000000  0.6508444  3
   1044   1045   1057   1059     1  0.0000000  0.6508444  3
   1044   1048   1060   1061     1  0.0000000  0.6508444  3
   1044   1048   1060   1062     1  0.0000000  0.6508444  3
   1044   1051   1054   1055     1  0.0000000  0.6508444  3
   1044   1051   1054   1056     1  0.0000000  0.6508444  3
   1045   1044   1048   1049     1  0.0000000  1.2552000  3
   1045   1044   1048   1050     1  0.0000000  1.2552000  3
   1045   1044   1051   1052     1  0.0000000  1.2552000  3
   1045   1044   1051   1053     1  0.0000000  1.2552000  3
   1045   1057   1069   1070     1  0.0000000  0.6508444  3
   1045   1057   1069   1071     1  0.0000000  0.6508444  3
   1046   1045   1044   1048     1  0.0000000  1.2552000  3
   1046   1045   1044   1051     1  0.0000000  1.2552000  3
   1046   1045   1057   1069     1  0.0000000  0.6508444  3
   1046   1045   1057   1058     1  0.0000000  0.6508444  3
   1046   1045   1057   1059     1  0.0000000  0.6508444  3
   1047   1045   1044   1048     1  0.0000000  1.2552000  3
   1047   1045   1044   1051     1  0.0000000  1.2552000  3
   1047   1045   1057   1069     1  0.0000000  0.6508444  3
   1047   1045   1057   1058     1  0.0000000  0.6508444  3
   1047   1045   1057   1059     1  0.0000000  0.6508444  3
   1048   1044   1051   1052     1  0.0000000  1.2552000  3
   1048   1044   1051   1053     1  0.0000000  1.2552000  3
   1048   1060   1066   1067     1  0.0000000  0.6508444  3
   1048   1060   1066   1068     1  0.0000000  0.6508444  3
   1049   1048   1044   1051     1  0.0000000  1.2552000  3
   1049   1048   1060   1066     1  0.0000000  0.6508444  3
   1049   1048   1060   1061     1  0.0000000  0.6508444  3
   1049   1048   1060   1062     1  0.0000000  0.6508444  3
   1050   1048   1044   1051     1  0.0000000  1.2552000  3
   1050   1048   1060   1066     1  0.0000000  0.6508444  3
   1050   1048   1060   1061     1  0.0000000  0.6508444  3
   1050   1048   1060   1062     1  0.0000000  0.6508444  3
   1051   1054   1063   1064     1  0.0000000  0.6508444  3
   1051   1054   1063   1065     1  0.0000000  0.6508444  3
   1052   1051   1054   1063     1  0.0000000  0.6508444  3
   1052   1051   1054   1055     1  0.0000000  0.6508444  3
   1052   1051   1054   1056     1  0.0000000  0.6508444  3
   1053   1051   1054   1063     1  0.0000000  0.6508444  3
   1053   1051   1054   1055     1  0.0000000  0.6508444  3
   1053   1051   1054   1056     1  0.0000000  0.6508444  3
   1055   1054   1063   1072     1  0.0000000  1.0460000  1
   1055   1054   1063   1072     1  0.0000000  0.0000000  3
   1055   1054   1063   1064     1  0.0000000  0.6508444  3
   1055   1054   1063   1065     1  0.0000000  0.6508444  3
   1056   1054   1063   1072     1  0.0000000  1.0460000  1
   1056   1054   1063   1072     1  0.0000000  0.0000000  3
   1056   1054   1063   1064     1  0.0000000  0.6508444  3
   1056   1054   1063   1065     1  0.0000000  0.6508444  3
   1058   1057   1069   2203     1  0.0000000  1.0460000  1
   1058   1057   1069   2203     1  0.0000000  0.0000000  3
   1058   1057   1069   1070     1  0.0000000  0.6508444  3
   1058   1057   1069   1071     1  0.0000000  0.6508444  3
   1059   1057   1069   2203     1  0.0000000  1.0460000  1
   1059   1057   1069   2203     1  0.0000000  0.0000000  3
   1059   1057   1069   1070     1  0.0000000  0.6508444  3
   1059   1057   1069   1071     1  0.0000000  0.6508444  3
   1061   1060   1066   2174     1  0.0000000  1.0460000  1
   1061   1060   1066   2174     1  0.0000000  0.0000000  3
   1061   1060   1066   1067     1  0.0000000  0.6508444  3
   1061   1060   1066   1068     1  0.0000000  0.6508444  3
   1062   1060   1066   2174     1  0.0000000  1.0460000  1
   1062   1060   1066   2174     1  0.0000000  0.0000000  3
   1062   1060   1066   1067     1  0.0000000  0.6508444  3
   1062   1060   1066   1068     1  0.0000000  0.6508444  3
   1066   2174   2165   2166     1  0.0000000  1.6038667  3
   1066   2174   2165   2167     1  0.0000000  1.6038667  3
   1067   1066   2174   2165     1  0.0000000  1.6038667  3
   1068   1066   2174   2165     1  0.0000000  1.6038667  3
   1069   2203   2194   2195     1  0.0000000  1.6038667  3
   1069   2203   2194   2196     1  0.0000000  1.6038667  3
   1070   1069   2203   2194     1  0.0000000  1.6038667  3
   1071   1069   2203   2194     1  0.0000000  1.6038667  3
   1073   1074   1086   1087     1  0.0000000  0.6508444  3
   1073   1074   1086   1088     1  0.0000000  0.6508444  3
   1073   1077   1089   1090     1  0.0000000  0.6508444  3
   1073   1077   1089   1091     1  0.0000000  0.6508444  3
   1073   1080   1083   1084     1  0.0000000  0.6508444  3
   1073   1080   1083   1085     1  0.0000000  0.6508444  3
   1074   1073   1077   1078     1  0.0000000  1.2552000  3
   1074   1073   1077   1079     1  0.0000000  1.2552000  3
   1074   1073   1080   1081     1  0.0000000  1.2552000  3
   1074   1073   1080   1082     1  0.0000000  1.2552000  3
   1074   1086   1098   1099     1  0.0000000  0.6508444  3
   1074   1086   1098   1100     1  0.0000000  0.6508444  3
   1075   1074   1073   1077     1  0.0000000  1.2552000  3
   1075   1074   1073   1080     1  0.0000000  1.2552000  3
   1075   1074   1086   1098     1  0.0000000  0.6508444  3
   1075   1074   1086   1087     1  0.0000000  0.6508444  3
   1075   1074   1086   1088     1  0.0000000  0.6508444  3
   1076   1074   1073   1077     1  0.0000000  1.2552000  3
   1076   1074   1073   1080     1  0.0000000  1.2552000  3
   1076   1074   1086   1098     1  0.0000000  0.6508444  3
   1076   1074   1086   1087     1  0.0000000  0.6508444  3
   1076   1074   1086   1088     1  0.0000000  0.6508444  3
   1077   1073   1080   1081     1  0.0000000  1.2552000  3
   1077   1073   1080   1082     1  0.0000000  1.2552000  3
   1077   1089   1095   1096     1  0.0000000  0.6508444  3
   1077   1089   1095   1097     1  0.0000000  0.6508444  3
   1078   1077   1073   1080     1  0.0000000  1.2552000  3
   1078   1077   1089   1095     1  0.0000000  0.6508444  3
   1078   1077   1089   1090     1  0.0000000  0.6508444  3
   1078   1077   1089   1091     1  0.0000000  0.6508444  3
   1079   1077   1073   1080     1  0.0000000  1.2552000  3
   1079   1077   1089   1095     1  0.0000000  0.6508444  3
   1079   1077   1089   1090     1  0.0000000  0.6508444  3
   1079   1077   1089   1091     1  0.0000000  0.6508444  3
   1080   1083   1092   1093     1  0.0000000  0.6508444  3
   1080   1083   1092   1094     1  0.0000000  0.6508444  3
   1081   1080   1083   1092     1  0.0000000  0.6508444  3
   1081   1080   1083   1084     1  0.0000000  0.6508444  3
   1081   1080   1083   1085     1  0.0000000  0.6508444  3
   1082   1080   1083   1092     1  0.0000000  0.6508444  3
   1082   1080   1083   1084     1  0.0000000  0.6508444  3
   1082   1080   1083   1085     1  0.0000000  0.6508444  3
   1084   1083   1092   1101     1  0.0000000  1.0460000  1
   1084   1083   1092   1101     1  0.0000000  0.0000000  3
   1084   1083   1092   1093     1  0.0000000  0.6508444  3
   1084   1083   1092   1094     1  0.0000000  0.6508444  3
   1085   1083   1092   1101     1  0.0000000  1.0460000  1
   1085   1083   1092   1101     1  0.0000000  0.0000000  3
   1085   1083   1092   1093     1  0.0000000  0.6508444  3
   1085   1083   1092   1094     1  0.0000000  0.6508444  3
   1087   1086   1098   2261     1  0.0000000  1.0460000  1
   1087   1086   1098   2261     1  0.0000000  0.0000000  3
   1087   1086   1098   1099     1  0.0000000  0.6508444  3
   1087   1086   1098   1100     1  0.0000000  0.6508444  3
   1088   1086   1098   2261     1  0.0000000  1.0460000  1
   1088   1086   1098   2261     1  0.0000000  0.0000000  3
   1088   1086   1098   1099     1  0.0000000  0.6508444  3
   1088   1086   1098   1100     1  0.0000000  0.6508444  3
   1090   1089   1095   2232     1  0.0000000  1.0460000  1
   1090   1089   1095   2232     1  0.0000000  0.0000000  3
   1090   1089   1095   1096     1  0.0000000  0.6508444  3
   1090   1089   1095   1097     1  0.0000000  0.6508444  3
   1091   1089   1095   2232     1  0.0000000  1.0460000  1
   1091   1089   1095   2232     1  0.0000000  0.0000000  3
   1091   1089   1095   1096     1  0.0000000  0.6508444  3
   1091   1089   1095   1097     1  0.0000000  0.6508444  3
   1095   2232   2223   2224     1  0.0000000  1.6038667  3
   1095   2232   2223   2225     1  0.0000000  1.6038667  3
   1096   1095   2232   2223     1  0.0000000  1.6038667  3
   1097   1095   2232   2223     1  0.0000000  1.6038667  3
   1098   2261   2252   2253     1  0.0000000  1.6038667  3
   1098   2261   2252   2254     1  0.0000000  1.6038667  3
   1099   1098   2261   2252     1  0.0000000  1.6038667  3
   1100   1098   2261   2252     1  0.0000000  1.6038667  3
   1102   1103   1115   1116     1  0.0000000  0.6508444  3
   1102   1103   1115   1117     1  0.0000000  0.6508444  3
   1102   1106   1118   1119     1  0.0000000  0.6508444  3
   1102   1106   1118   1120     1  0.0000000  0.6508444  3
   1102   1109   1112   1113     1  0.0000000  0.6508444  3
   1102   1109   1112   1114     1  0.0000000  0.6508444  3
   1103   1102   1106   1107     1  0.0000000  1.2552000  3
   1103   1102   1106   1108     1  0.0000000  1.2552000  3
   1103   1102   1109   1110     1  0.0000000  1.2552000  3
   1103   1102   1109   1111     1  0.0000000  1.2552000  3
   1103   1115   1127   1128     1  0.0000000  0.6508444  3
   1103   1115   1127   1129     1  0.0000000  0.6508444  3
   1104   1103   1102   1106     1  0.0000000  1.2552000  3
   1104   1103   1102   1109     1  0.0000000  1.2552000  3
   1104   1103   1115   1127     1  0.0000000  0.6508444  3
   1104   1103   1115   1116     1  0.0000000  0.6508444  3
   1104   1103   1115   1117     1  0.0000000  0.6508444  3
   1105   1103   1102   1106     1  0.0000000  1.2552000  3
   1105   1103   1102   1109     1  0.0000000  1.2552000  3
   1105   1103   1115   1127     1  0.0000000  0.6508444  3
   1105   1103   1115   1116     1  0.0000000  0.6508444  3
   1105   1103   1115   1117     1  0.0000000  0.6508444  3
   1106   1102   1109   1110     1  0.0000000  1.2552000  3
   1106   1102   1109   1111     1  0.0000000  1.2552000  3
   1106   1118   1124   1125     1  0.0000000  0.6508444  3
   1106   1118   1124   1126     1  0.0000000  0.6508444  3
   1107   1106   1102   1109     1  0.0000000  1.2552000  3
   1107   1106   1118   1124     1  0.0000000  0.6508444  3
   1107   1106   1118   1119     1  0.0000000  0.6508444  3
   1107   1106   1118   1120     1  0.0000000  0.6508444  3
   1108   1106   1102   1109     1  0.0000000  1.2552000  3
   1108   1106   1118   1124     1  0.0000000  0.6508444  3
   1108   1106   1118   1119     1  0.0000000  0.6508444  3
   1108   1106   1118   1120     1  0.0000000  0.6508444  3
   1109   1112   1121   1122     1  0.0000000  0.6508444  3
   1109   1112   1121   1123     1  0.0000000  0.6508444  3
   1110   1109   1112   1121     1  0.0000000  0.6508444  3
   1110   1109   1112   1113     1  0.0000000  0.6508444  3
   1110   1109   1112   1114     1  0.0000000  0.6508444  3
   1111   1109   1112   1121     1  0.0000000  0.6508444  3
   1111   1109   1112   1113     1  0.0000000  0.6508444  3
   1111   1109   1112   1114     1  0.0000000  0.6508444  3
   1113   1112   1121   1130     1  0.0000000  1.0460000  1
   1113   1112   1121   1130     1  0.0000000  0.0000000  3
   1113   1112   1121   1122     1  0.0000000  0.6508444  3
   1113   1112   1121   1123     1  0.0000000  0.6508444  3
   1114   1112   1121   1130     1  0.0000000  1.0460000  1
   1114   1112   1121   1130     1  0.0000000  0.0000000  3
   1114   1112   1121   1122     1  0.0000000  0.6508444  3
   1114   1112   1121   1123     1  0.0000000  0.6508444  3
   1116   1115   1127   2319     1  0.0000000  1.0460000  1
   1116   1115   1127   2319     1  0.0000000  0.0000000  3
   1116   1115   1127   1128     1  0.0000000  0.6508444  3
   1116   1115   1127   1129     1  0.0000000  0.6508444  3
   1117   1115   1127   2319     1  0.0000000  1.0460000  1
   1117   1115   1127   2319     1  0.0000000  0.0000000  3
   1117   1115   1127   1128     1  0.0000000  0.6508444  3
   1117   1115   1127   1129     1  0.0000000  0.6508444  3
   1119   1118   1124   2290     1  0.0000000  1.0460000  1
   1119   1118   1124   2290     1  0.0000000  0.0000000  3
   1119   1118   1124   1125     1  0.0000000  0.6508444  3
   1119   1118   1124   1126     1  0.0000000  0.6508444  3
   1120   1118   1124   2290     1  0.0000000  1.0460000  1
   1120   1118   1124   2290     1  0.0000000  0.0000000  3
   1120   1118   1124   1125     1  0.0000000  0.6508444  3
   1120   1118   1124   1126     1  0.0000000  0.6508444  3
   1124   2290   2281   2282     1  0.0000000  1.6038667  3
   1124   2290   2281   2283     1  0.0000000  1.6038667  3
   1125   1124   2290   2281     1  0.0000000  1.6038667  3
   1126   1124   2290   2281     1  0.0000000  1.6038667  3
   1127   2319   2310   2311     1  0.0000000  1.6038667  3
   1127   2319   2310   2312     1  0.0000000  1.6038667  3
   1128   1127   2319   2310     1  0.0000000  1.6038667  3
   1129   1127   2319   2310     1  0.0000000  1.6038667  3
   1131   1132   1144   1145     1  0.0000000  0.6508444  3
   1131   1132   1144   1146     1  0.0000000  0.6508444  3
   1131   1135   1147   1148     1  0.0000000  0.6508444  3
   1131   1135   1147   1149     1  0.0000000  0.6508444  3
   1131   1138   1141   1142     1  0.0000000  0.6508444  3
   1131   1138   1141   1143     1  0.0000000  0.6508444  3
   1132   1131   1135   1136     1  0.0000000  1.2552000  3
   1132   1131   1135   1137     1  0.0000000  1.2552000  3
   1132   1131   1138   1139     1  0.0000000  1.2552000  3
   1132   1131   1138   1140     1  0.0000000  1.2552000  3
   1132   1144   1156   1157     1  0.0000000  0.6508444  3
   1132   1144   1156   1158     1  0.0000000  0.6508444  3
   1133   1132   1131   1135     1  0.0000000  1.2552000  3
   1133   1132   1131   1138     1  0.0000000  1.2552000  3
   1133   1132   1144   1156     1  0.0000000  0.6508444  3
   1133   1132   1144   1145     1  0.0000000  0.6508444  3
   1133   1132   1144   1146     1  0.0000000  0.6508444  3
   1134   1132   1131   1135     1  0.0000000  1.2552000  3
   1134   1132   1131   1138     1  0.0000000  1.2552000  3
   1134   1132   1144   1156     1  0.0000000  0.6508444  3
   1134   1132   1144   1145     1  0.0000000  0.6508444  3
   1134   1132   1144   1146     1  0.0000000  0.6508444  3
   1135   1131   1138   1139     1  0.0000000  1.2552000  3
   1135   1131   1138   1140     1  0.0000000  1.2552000  3
   1135   1147   1153   1154     1  0.0000000  0.6508444  3
   1135   1147   1153   1155     1  0.0000000  0.6508444  3
   1136   1135   1131   1138     1  0.0000000  1.2552000  3
   1136   1135   1147   1153     1  0.0000000  0.6508444  3
   1136   1135   1147   1148     1  0.0000000  0.6508444  3
   1136   1135   1147   1149     1  0.0000000  0.6508444  3
   1137   1135   1131   1138     1  0.0000000  1.2552000  3
   1137   1135   1147   1153     1  0.0000000  0.6508444  3
   1137   1135   1147   1148     1  0.0000000  0.6508444  3
   1137   1135   1147   1149     1  0.0000000  0.6508444  3
   1138   1141   1150   1151     1  0.0000000  0.6508444  3
   1138   1141   1150   1152     1  0.0000000  0.6508444  3
   1139   1138   1141   1150     1  0.0000000  0.6508444  3
   1139   1138   1141   1142     1  0.0000000  0.6508444  3
   1139   1138   1141   1143     1  0.0000000  0.6508444  3
   1140   1138   1141   1150     1  0.0000000  0.6508444  3
   1140   1138   1141   1142     1  0.0000000  0.6508444  3
   1140   1138   1141   1143     1  0.0000000  0.6508444  3
   1142   1141   1150   1159     1  0.0000000  1.0460000  1
   1142   1141   1150   1159     1  0.0000000  0.0000000  3
   1142   1141   1150   1151     1  0.0000000  0.6508444  3
   1142   1141   1150   1152     1  0.0000000  0.6508444  3
   1143   1141   1150   1159     1  0.0000000  1.0460000  1
   1143   1141   1150   1159     1  0.0000000  0.0000000  3
   1143   1141   1150   1151     1  0.0000000  0.6508444  3
   1143   1141   1150   1152     1  0.0000000  0.6508444  3
   1145   1144   1156   2377     1  0.0000000  1.0460000  1
   1145   1144   1156   2377     1  0.0000000  0.0000000  3
   1145   1144   1156   1157     1  0.0000000  0.6508444  3
   1145   1144   1156   1158     1  0.0000000  0.6508444  3
   1146   1144   1156   2377     1  0.0000000  1.0460000  1
   1146   1144   1156   2377     1  0.0000000  0.0000000  3
   1146   1144   1156   1157     1  0.0000000  0.6508444  3
   1146   1144   1156   1158     1  0.0000000  0.6508444  3
   1148   1147   1153   2348     1  0.0000000  1.0460000  1
   1148   1147   1153   2348     1  0.0000000  0.0000000  3
   1148   1147   1153   1154     1  0.0000000  0.6508444  3
   1148   1147   1153   1155     1  0.0000000  0.6508444  3
   1149   1147   1153   2348     1  0.0000000  1.0460000  1
   1149   1147   1153   2348     1  0.0000000  0.0000000  3
   1149   1147   1153   1154     1  0.0000000  0.6508444  3
   1149   1147   1153   1155     1  0.0000000  0.6508444  3
   1153   2348   2339   2340     1  0.0000000  1.6038667  3
   1153   2348   2339   2341     1  0.0000000  1.6038667  3
   1154   1153   2348   2339     1  0.0000000  1.6038667  3
   1155   1153   2348   2339     1  0.0000000  1.6038667  3
   1156   2377   2368   2369     1  0.0000000  1.6038667  3
   1156   2377   2368   2370     1  0.0000000  1.6038667  3
   1157   1156   2377   2368     1  0.0000000  1.6038667  3
   1158   1156   2377   2368     1  0.0000000  1.6038667  3
   1160   1161   1173   1174     1  0.0000000  0.6508444  3
   1160   1161   1173   1175     1  0.0000000  0.6508444  3
   1160   1164   1176   1177     1  0.0000000  0.6508444  3
   1160   1164   1176   1178     1  0.0000000  0.6508444  3
   1160   1167   1170   1171     1  0.0000000  0.6508444  3
   1160   1167   1170   1172     1  0.0000000  0.6508444  3
   1161   1160   1164   1165     1  0.0000000  1.2552000  3
   1161   1160   1164   1166     1  0.0000000  1.2552000  3
   1161   1160   1167   1168     1  0.0000000  1.2552000  3
   1161   1160   1167   1169     1  0.0000000  1.2552000  3
   1161   1173   1185   1186     1  0.0000000  0.6508444  3
   1161   1173   1185   1187     1  0.0000000  0.6508444  3
   1162   1161   1160   1164     1  0.0000000  1.2552000  3
   1162   1161   1160   1167     1  0.0000000  1.2552000  3
   1162   1161   1173   1185     1  0.0000000  0.6508444  3
   1162   1161   1173   1174     1  0.0000000  0.6508444  3
   1162   1161   1173   1175     1  0.0000000  0.6508444  3
   1163   1161   1160   1164     1  0.0000000  1.2552000  3
   1163   1161   1160   1167     1  0.0000000  1.2552000  3
   1163   1161   1173   1185     1  0.0000000  0.6508444  3
   1163   1161   1173   1174     1  0.0000000  0.6508444  3
   1163   1161   1173   1175     1  0.0000000  0.6508444  3
   1164   1160   1167   1168     1  0.0000000  1.2552000  3
   1164   1160   1167   1169     1  0.0000000  1.2552000  3
   1164   1176   1182   1183     1  0.0000000  0.6508444  3
   1164   1176   1182   1184     1  0.0000000  0.6508444  3
   1165   1164   1160   1167     1  0.0000000  1.2552000  3
   1165   1164   1176   1182     1  0.0000000  0.6508444  3
   1165   1164   1176   1177     1  0.0000000  0.6508444  3
   1165   1164   1176   1178     1  0.0000000  0.6508444  3
   1166   1164   1160   1167     1  0.0000000  1.2552000  3
   1166   1164   1176   1182     1  0.0000000  0.6508444  3
   1166   1164   1176   1177     1  0.0000000  0.6508444  3
   1166   1164   1176   1178     1  0.0000000  0.6508444  3
   1167   1170   1179   1180     1  0.0000000  0.6508444  3
   1167   1170   1179   1181     1  0.0000000  0.6508444  3
   1168   1167   1170   1179     1  0.0000000  0.6508444  3
   1168   1167   1170   1171     1  0.0000000  0.6508444  3
   1168   1167   1170   1172     1  0.0000000  0.6508444  3
   1169   1167   1170   1179     1  0.0000000  0.6508444  3
   1169   1167   1170   1171     1  0.0000000  0.6508444  3
   1169   1167   1170   1172     1  0.0000000  0.6508444  3
   1171   1170   1179   1188     1  0.0000000  1.0460000  1
   1171   1170   1179   1188     1  0.0000000  0.0000000  3
   1171   1170   1179   1180     1  0.0000000  0.6508444  3
   1171   1170   1179   1181     1  0.0000000  0.6508444  3
   1172   1170   1179   1188     1  0.0000000  1.0460000  1
   1172   1170   1179   1188     1  0.0000000  0.0000000  3
   1172   1170   1179   1180     1  0.0000000  0.6508444  3
   1172   1170   1179   1181     1  0.0000000  0.6508444  3
   1174   1173   1185   2435     1  0.0000000  1.0460000  1
   1174   1173   1185   2435     1  0.0000000  0.0000000  3
   1174   1173   1185   1186     1  0.0000000  0.6508444  3
   1174   1173   1185   1187     1  0.0000000  0.6508444  3
   1175   1173   1185   2435     1  0.0000000  1.0460000  1
   1175   1173   1185   2435     1  0.0000000  0.0000000  3
   1175   1173   1185   1186     1  0.0000000  0.6508444  3
   1175   1173   1185   1187     1  0.0000000  0.6508444  3
   1177   1176   1182   2406     1  0.0000000  1.0460000  1
   1177   1176   1182   2406     1  0.0000000  0.0000000  3
   1177   1176   1182   1183     1  0.0000000  0.6508444  3
   1177   1176   1182   1184     1  0.0000000  0.6508444  3
   1178   1176   1182   2406     1  0.0000000  1.0460000  1
   1178   1176   1182   2406     1  0.0000000  0.0000000  3
   1178   1176   1182   1183     1  0.0000000  0.6508444  3
   1178   1176   1182   1184     1  0.0000000  0.6508444  3
   1182   2406   2397   2398     1  0.0000000  1.6038667  3
   1182   2406   2397   2399     1  0.0000000  1.6038667  3
   1183   1182   2406   2397     1  0.0000000  1.6038667  3
   1184   1182   2406   2397     1  0.0000000  1.6038667  3
   1185   2435   2426   2427     1  0.0000000  1.6038667  3
   1185   2435   2426   2428     1  0.0000000  1.6038667  3
   1186   1185   2435   2426     1  0.0000000  1.6038667  3
   1187   1185   2435   2426     1  0.0000000  1.6038667  3
   1189   1190   1202   1203     1  0.0000000  0.6508444  3
   1189   1190   1202   1204     1  0.0000000  0.6508444  3
   1189   1193   1205   1206     1  0.0000000  0.6508444  3
   1189   1193   1205   1207     1  0.0000000  0.6508444  3
   1189   1196   1199   1200     1  0.0000000  0.6508444  3
   1189   1196   1199   1201     1  0.0000000  0.6508444  3
   1190   1189   1193   1194     1  0.0000000  1.2552000  3
   1190   1189   1193   1195     1  0.0000000  1.2552000  3
   1190   1189   1196   1197     1  0.0000000  1.2552000  3
   1190   1189   1196   1198     1  0.0000000  1.2552000  3
   1190   1202   1214   1215     1  0.0000000  0.6508444  3
   1190   1202   1214   1216     1  0.0000000  0.6508444  3
   1191   1190   1189   1193     1  0.0000000  1.2552000  3
   1191   1190   1189   1196     1  0.0000000  1.2552000  3
   1191   1190   1202   1214     1  0.0000000  0.6508444  3
   1191   1190   1202   1203     1  0.0000000  0.6508444  3
   1191   1190   1202   1204     1  0.0000000  0.6508444  3
   1192   1190   1189   1193     1  0.0000000  1.2552000  3
   1192   1190   1189   1196     1  0.0000000  1.2552000  3
   1192   1190   1202   1214     1  0.0000000  0.6508444  3
   1192   1190   1202   1203     1  0.0000000  0.6508444  3
   1192   1190   1202   1204     1  0.0000000  0.6508444  3
   1193   1189   1196   1197     1  0.0000000  1.2552000  3
   1193   1189   1196   1198     1  0.0000000  1.2552000  3
   1193   1205   1211   1212     1  0.0000000  0.6508444  3
   1193   1205   1211   1213     1  0.0000000  0.6508444  3
   1194   1193   1189   1196     1  0.0000000  1.2552000  3
   1194   1193   1205   1211     1  0.0000000  0.6508444  3
   1194   1193   1205   1206     1  0.0000000  0.6508444  3
   1194   1193   1205   1207     1  0.0000000  0.6508444  3
   1195   1193   1189   1196     1  0.0000000  1.2552000  3
   1195   1193   1205   1211     1  0.0000000  0.6508444  3
   1195   1193   1205   1206     1  0.0000000  0.6508444  3
   1195   1193   1205   1207     1  0.0000000  0.6508444  3
   1196   1199   1208   1209     1  0.0000000  0.6508444  3
   1196   1199   1208   1210     1  0.0000000  0.6508444  3
   1197   1196   1199   1208     1  0.0000000  0.6508444  3
   1197   1196   1199   1200     1  0.0000000  0.6508444  3
   1197   1196   1199   1201     1  0.0000000  0.6508444  3
   1198   1196   1199   1208     1  0.0000000  0.6508444  3
   1198   1196   1199   1200     1  0.0000000  0.6508444  3
   1198   1196   1199   1201     1  0.0000000  0.6508444  3
   1200   1199   1208   1217     1  0.0000000  1.0460000  1
   1200   1199   1208   1217     1  0.0000000  0.0000000  3
   1200   1199   1208   1209     1  0.0000000  0.6508444  3
   1200   1199   1208   1210     1  0.0000000  0.6508444  3
   1201   1199   1208   1217     1  0.0000000  1.0460000  1
   1201   1199   1208   1217     1  0.0000000  0.0000000  3
   1201   1199   1208   1209     1  0.0000000  0.6508444  3
   1201   1199   1208   1210     1  0.0000000  0.6508444  3
   1203   1202   1214   2493     1  0.0000000  1.0460000  1
   1203   1202   1214   2493     1  0.0000000  0.0000000  3
   1203   1202   1214   1215     1  0.0000000  0.6508444  3
   1203   1202   1214   1216     1  0.0000000  0.6508444  3
   1204   1202   1214   2493     1  0.0000000  1.0460000  1
   1204   1202   1214   2493     1  0.0000000  0.0000000  3
   1204   1202   1214   1215     1  0.0000000  0.6508444  3
   1204   1202   1214   1216     1  0.0000000  0.6508444  3
   1206   1205   1211   2464     1  0.0000000  1.0460000  1
   1206   1205   1211   2464     1  0.0000000  0.0000000  3
   1206   1205   1211   1212     1  0.0000000  0.6508444  3
   1206   1205   1211   1213     1  0.0000000  0.6508444  3
   1207   1205   1211   2464     1  0.0000000  1.0460000  1
   1207   1205   1211   2464     1  0.0000000  0.0000000  3
   1207   1205   1211   1212     1  0.0000000  0.6508444  3
   1207   1205   1211   1213     1  0.0000000  0.6508444  3
   1211   2464   2455   2456     1  0.0000000  1.6038667  3
   1211   2464   2455   2457     1  0.0000000  1.6038667  3
   1212   1211   2464   2455     1  0.0000000  1.6038667  3
   1213   1211   2464   2455     1  0.0000000  1.6038667  3
   1214   2493   2484   2485     1  0.0000000  1.6038667  3
   1214   2493   2484   2486     1  0.0000000  1.6038667  3
   1215   1214   2493   2484     1  0.0000000  1.6038667  3
   1216   1214   2493   2484     1  0.0000000  1.6038667  3
   1218   1219   1231   1232     1  0.0000000  0.6508444  3
   1218   1219   1231   1233     1  0.0000000  0.6508444  3
   1218   1222   1234   1235     1  0.0000000  0.6508444  3
   1218   1222   1234   1236     1  0.0000000  0.6508444  3
   1218   1225   1228   1229     1  0.0000000  0.6508444  3
   1218   1225   1228   1230     1  0.0000000  0.6508444  3
   1219   1218   1222   1223     1  0.0000000  1.2552000  3
   1219   1218   1222   1224     1  0.0000000  1.2552000  3
   1219   1218   1225   1226     1  0.0000000  1.2552000  3
   1219   1218   1225   1227     1  0.0000000  1.2552000  3
   1219   1231   1243   1244     1  0.0000000  0.6508444  3
   1219   1231   1243   1245     1  0.0000000  0.6508444  3
   1220   1219   1218   1222     1  0.0000000  1.2552000  3
   1220   1219   1218   1225     1  0.0000000  1.2552000  3
   1220   1219   1231   1243     1  0.0000000  0.6508444  3
   1220   1219   1231   1232     1  0.0000000  0.6508444  3
   1220   1219   1231   1233     1  0.0000000  0.6508444  3
   1221   1219   1218   1222     1  0.0000000  1.2552000  3
   1221   1219   1218   1225     1  0.0000000  1.2552000  3
   1221   1219   1231   1243     1  0.0000000  0.6508444  3
   1221   1219   1231   1232     1  0.0000000  0.6508444  3
   1221   1219   1231   1233     1  0.0000000  0.6508444  3
   1222   1218   1225   1226     1  0.0000000  1.2552000  3
   1222   1218   1225   1227     1  0.0000000  1.2552000  3
   1222   1234   1240   1241     1  0.0000000  0.6508444  3
   1222   1234   1240   1242     1  0.0000000  0.6508444  3
   1223   1222   1218   1225     1  0.0000000  1.2552000  3
   1223   1222   1234   1240     1  0.0000000  0.6508444  3
   1223   1222   1234   1235     1  0.0000000  0.6508444  3
   1223   1222   1234   1236     1  0.0000000  0.6508444  3
   1224   1222   1218   1225     1  0.0000000  1.2552000  3
   1224   1222   1234   1240     1  0.0000000  0.6508444  3
   1224   1222   1234   1235     1  0.0000000  0.6508444  3
   1224   1222   1234   1236     1  0.0000000  0.6508444  3
   1225   1228   1237   1238     1  0.0000000  0.6508444  3
   1225   1228   1237   1239     1  0.0000000  0.6508444  3
   1226   1225   1228   1237     1  0.0000000  0.6508444  3
   1226   1225   1228   1229     1  0.0000000  0.6508444  3
   1226   1225   1228   1230     1  0.0000000  0.6508444  3
   1227   1225   1228   1237     1  0.0000000  0.6508444  3
   1227   1225   1228   1229     1  0.0000000  0.6508444  3
   1227   1225   1228   1230     1  0.0000000  0.6508444  3
   1229   1228   1237   1246     1  0.0000000  1.0460000  1
   1229   1228   1237   1246     1  0.0000000  0.0000000  3
   1229   1228   1237   1238     1  0.0000000  0.6508444  3
   1229   1228   1237   1239     1  0.0000000  0.6508444  3
   1230   1228   1237   1246     1  0.0000000  1.0460000  1
   1230   1228   1237   1246     1  0.0000000  0.0000000  3
   1230   1228   1237   1238     1  0.0000000  0.6508444  3
   1230   1228   1237   1239     1  0.0000000  0.6508444  3
   1232   1231   1243   2551     1  0.0000000  1.0460000  1
   1232   1231   1243   2551     1  0.0000000  0.0000000  3
   1232   1231   1243   1244     1  0.0000000  0.6508444  3
   1232   1231   1243   1245     1  0.0000000  0.6508444  3
   1233   1231   1243   2551     1  0.0000000  1.0460000  1
   1233   1231   1243   2551     1  0.0000000  0.0000000  3
   1233   1231   1243   1244     1  0.0000000  0.6508444  3
   1233   1231   1243   1245     1  0.0000000  0.6508444  3
   1235   1234   1240   2522     1  0.0000000  1.0460000  1
   1235   1234   1240   2522     1  0.0000000  0.0000000  3
   1235   1234   1240   1241     1  0.0000000  0.6508444  3
   1235   1234   1240   1242     1  0.0000000  0.6508444  3
   1236   1234   1240   2522     1  0.0000000  1.0460000  1
   1236   1234   1240   2522     1  0.0000000  0.0000000  3
   1236   1234   1240   1241     1  0.0000000  0.6508444  3
   1236   1234   1240   1242     1  0.0000000  0.6508444  3
   1240   2522   2513   2514     1  0.0000000  1.6038667  3
   1240   2522   2513   2515     1  0.0000000  1.6038667  3
   1241   1240   2522   2513     1  0.0000000  1.6038667  3
   1242   1240   2522   2513     1  0.0000000  1.6038667  3
   1243   2551   2542   2543     1  0.0000000  1.6038667  3
   1243   2551   2542   2544     1  0.0000000  1.6038667  3
   1244   1243   2551   2542     1  0.0000000  1.6038667  3
   1245   1243   2551   2542     1  0.0000000  1.6038667  3
   1247   1248   1260   1261     1  0.0000000  0.6508444  3
   1247   1248   1260   1262     1  0.0000000  0.6508444  3
   1247   1251   1263   1264     1  0.0000000  0.6508444  3
   1247   1251   1263   1265     1  0.0000000  0.6508444  3
   1247   1254   1257   1258     1  0.0000000  0.6508444  3
   1247   1254   1257   1259     1  0.0000000  0.6508444  3
   1248   1247   1251   1252     1  0.0000000  1.2552000  3
   1248   1247   1251   1253     1  0.0000000  1.2552000  3
   1248   1247   1254   1255     1  0.0000000  1.2552000  3
   1248   1247   1254   1256     1  0.0000000  1.2552000  3
   1248   1260   1272   1273     1  0.0000000  0.6508444  3
   1248   1260   1272   1274     1  0.0000000  0.6508444  3
   1249   1248   1247   1251     1  0.0000000  1.2552000  3
   1249   1248   1247   1254     1  0.0000000  1.2552000  3
   1249   1248   1260   1272     1  0.0000000  0.6508444  3
   1249   1248   1260   1261     1  0.0000000  0.6508444  3
   1249   1248   1260   1262     1  0.0000000  0.6508444  3
   1250   1248   1247   1251     1  0.0000000  1.2552000  3
   1250   1248   1247   1254     1  0.0000000  1.2552000  3
   1250   1248   1260   1272     1  0.0000000  0.6508444  3
   1250   1248   1260   1261     1  0.0000000  0.6508444  3
   1250   1248   1260   1262     1  0.0000000  0.6508444  3
   1251   1247   1254   1255     1  0.0000000  1.2552000  3
   1251   1247   1254   1256     1  0.0000000  1.2552000  3
   1251   1263   1269   1270     1  0.0000000  0.6508444  3
   1251   1263   1269   1271     1  0.0000000  0.6508444  3
   1252   1251   1247   1254     1  0.0000000  1.2552000  3
   1252   1251   1263   1269     1  0.0000000  0.6508444  3
   1252   1251   1263   1264     1  0.0000000  0.6508444  3
   1252   1251   1263   1265     1  0.0000000  0.6508444  3
   1253   1251   1247   1254     1  0.0000000  1.2552000  3
   1253   1251   1263   1269     1  0.0000000  0.6508444  3
   1253   1251   1263   1264     1  0.0000000  0.6508444  3
   1253   1251   1263   1265     1  0.0000000  0.6508444  3
   1254   1257   1266   1267     1  0.0000000  0.6508444  3
   1254   1257   1266   1268     1  0.0000000  0.6508444  3
   1255   1254   1257   1266     1  0.0000000  0.6508444  3
   1255   1254   1257   1258     1  0.0000000  0.6508444  3
   1255   1254   1257   1259     1  0.0000000  0.6508444  3
   1256   1254   1257   1266     1  0.0000000  0.6508444  3
   1256   1254   1257   1258     1  0.0000000  0.6508444  3
   1256   1254   1257   1259     1  0.0000000  0.6508444  3
   1258   1257   1266   1275     1  0.0000000  1.0460000  1
   1258   1257   1266   1275     1  0.0000000  0.0000000  3
   1258   1257   1266   1267     1  0.0000000  0.6508444  3
   1258   1257   1266   1268     1  0.0000000  0.6508444  3
   1259   1257   1266   1275     1  0.0000000  1.0460000  1
   1259   1257   1266   1275     1  0.0000000  0.0000000  3
   1259   1257   1266   1267     1  0.0000000  0.6508444  3
   1259   1257   1266   1268     1  0.0000000  0.6508444  3
   1261   1260   1272   2609     1  0.0000000  1.0460000  1
   1261   1260   1272   2609     1  0.0000000  0.0000000  3
   1261   1260   1272   1273     1  0.0000000  0.6508444  3
   1261   1260   1272   1274     1  0.0000000  0.6508444  3
   1262   1260   1272   2609     1  0.0000000  1.0460000  1
   1262   1260   1272   2609     1  0.0000000  0.0000000  3
   1262   1260   1272   1273     1  0.0000000  0.6508444  3
   1262   1260   1272   1274     1  0.0000000  0.6508444  3
   1264   1263   1269   2580     1  0.0000000  1.0460000  1
   1264   1263   1269   2580     1  0.0000000  0.0000000  3
   1264   1263   1269   1270     1  0.0000000  0.6508444  3
   1264   1263   1269   1271     1  0.0000000  0.6508444  3
   1265   1263   1269   2580     1  0.0000000  1.0460000  1
   1265   1263   1269   2580     1  0.0000000  0.0000000  3
   1265   1263   1269   1270     1  0.0000000  0.6508444  3
   1265   1263   1269   1271     1  0.0000000  0.6508444  3
   1269   2580   2571   2572     1  0.0000000  1.6038667  3
   1269   2580   2571   2573     1  0.0000000  1.6038667  3
   1270   1269   2580   2571     1  0.0000000  1.6038667  3
   1271   1269   2580   2571     1  0.0000000  1.6038667  3
   1272   2609   2600   2601     1  0.0000000  1.6038667  3
   1272   2609   2600   2602     1  0.0000000  1.6038667  3
   1273   1272   2609   2600     1  0.0000000  1.6038667  3
   1274   1272   2609   2600     1  0.0000000  1.6038667  3
   1276   1277   1289   1290     1  0.0000000  0.6508444  3
   1276   1277   1289   1291     1  0.0000000  0.6508444  3
   1276   1280   1292   1293     1  0.0000000  0.6508444  3
   1276   1280   1292   1294     1  0.0000000  0.6508444  3
   1276   1283   1286   1287     1  0.0000000  0.6508444  3
   1276   1283   1286   1288     1  0.0000000  0.6508444  3
   1277   1276   1280   1281     1  0.0000000  1.2552000  3
   1277   1276   1280   1282     1  0.0000000  1.2552000  3
   1277   1276   1283   1284     1  0.0000000  1.2552000  3
   1277   1276   1283   1285     1  0.0000000  1.2552000  3
   1277   1289   1301   1302     1  0.0000000  0.6508444  3
   1277   1289   1301   1303     1  0.0000000  0.6508444  3
   1278   1277   1276   1280     1  0.0000000  1.2552000  3
   1278   1277   1276   1283     1  0.0000000  1.2552000  3
   1278   1277   1289   1301     1  0.0000000  0.6508444  3
   1278   1277   1289   1290     1  0.0000000  0.6508444  3
   1278   1277   1289   1291     1  0.0000000  0.6508444  3
   1279   1277   1276   1280     1  0.0000000  1.2552000  3
   1279   1277   1276   1283     1  0.0000000  1.2552000  3
   1279   1277   1289   1301     1  0.0000000  0.6508444  3
   1279   1277   1289   1290     1  0.0000000  0.6508444  3
   1279   1277   1289   1291     1  0.0000000  0.6508444  3
   1280   1276   1283   1284     1  0.0000000  1.2552000  3
   1280   1276   1283   1285     1  0.0000000  1.2552000  3
   1280   1292   1298   1299     1  0.0000000  0.6508444  3
   1280   1292   1298   1300     1  0.0000000  0.6508444  3
   1281   1280   1276   1283     1  0.0000000  1.2552000  3
   1281   1280   1292   1298     1  0.0000000  0.6508444  3
   1281   1280   1292   1293     1  0.0000000  0.6508444  3
   1281   1280   1292   1294     1  0.0000000  0.6508444  3
   1282   1280   1276   1283     1  0.0000000  1.2552000  3
   1282   1280   1292   1298     1  0.0000000  0.6508444  3
   1282   1280   1292   1293     1  0.0000000  0.6508444  3
   1282   1280   1292   1294     1  0.0000000  0.6508444  3
   1283   1286   1295   1296     1  0.0000000  0.6508444  3
   1283   1286   1295   1297     1  0.0000000  0.6508444  3
   1284   1283   1286   1295     1  0.0000000  0.6508444  3
   1284   1283   1286   1287     1  0.0000000  0.6508444  3
   1284   1283   1286   1288     1  0.0000000  0.6508444  3
   1285   1283   1286   1295     1  0.0000000  0.6508444  3
   1285   1283   1286   1287     1  0.0000000  0.6508444  3
   1285   1283   1286   1288     1  0.0000000  0.6508444  3
   1287   1286   1295   1304     1  0.0000000  1.0460000  1
   1287   1286   1295   1304     1  0.0000000  0.0000000  3
   1287   1286   1295   1296     1  0.0000000  0.6508444  3
   1287   1286   1295   1297     1  0.0000000  0.6508444  3
   1288   1286   1295   1304     1  0.0000000  1.0460000  1
   1288   1286   1295   1304     1  0.0000000  0.0000000  3
   1288   1286   1295   1296     1  0.0000000  0.6508444  3
   1288   1286   1295   1297     1  0.0000000  0.6508444  3
   1290   1289   1301   2667     1  0.0000000  1.0460000  1
   1290   1289   1301   2667     1  0.0000000  0.0000000  3
   1290   1289   1301   1302     1  0.0000000  0.6508444  3
   1290   1289   1301   1303     1  0.0000000  0.6508444  3
   1291   1289   1301   2667     1  0.0000000  1.0460000  1
   1291   1289   1301   2667     1  0.0000000  0.0000000  3
   1291   1289   1301   1302     1  0.0000000  0.6508444  3
   1291   1289   1301   1303     1  0.0000000  0.6508444  3
   1293   1292   1298   2638     1  0.0000000  1.0460000  1
   1293   1292   1298   2638     1  0.0000000  0.0000000  3
   1293   1292   1298   1299     1  0.0000000  0.6508444  3
   1293   1292   1298   1300     1  0.0000000  0.6508444  3
   1294   1292   1298   2638     1  0.0000000  1.0460000  1
   1294   1292   1298   2638     1  0.0000000  0.0000000  3
   1294   1292   1298   1299     1  0.0000000  0.6508444  3
   1294   1292   1298   1300     1  0.0000000  0.6508444  3
   1298   2638   2629   2630     1  0.0000000  1.6038667  3
   1298   2638   2629   2631     1  0.0000000  1.6038667  3
   1299   1298   2638   2629     1  0.0000000  1.6038667  3
   1300   1298   2638   2629     1  0.0000000  1.6038667  3
   1301   2667   2658   2659     1  0.0000000  1.6038667  3
   1301   2667   2658   2660     1  0.0000000  1.6038667  3
   1302   1301   2667   2658     1  0.0000000  1.6038667  3
   1303   1301   2667   2658     1  0.0000000  1.6038667  3
   1305   1306   1318   1319     1  0.0000000  0.6508444  3
   1305   1306   1318   1320     1  0.0000000  0.6508444  3
   1305   1309   1321   1322     1  0.0000000  0.6508444  3
   1305   1309   1321   1323     1  0.0000000  0.6508444  3
   1305   1312   1315   1316     1  0.0000000  0.6508444  3
   1305   1312   1315   1317     1  0.0000000  0.6508444  3
   1306   1305   1309   1310     1  0.0000000  1.2552000  3
   1306   1305   1309   1311     1  0.0000000  1.2552000  3
   1306   1305   1312   1313     1  0.0000000  1.2552000  3
   1306   1305   1312   1314     1  0.0000000  1.2552000  3
   1306   1318   1330   1331     1  0.0000000  0.6508444  3
   1306   1318   1330   1332     1  0.0000000  0.6508444  3
   1307   1306   1305   1309     1  0.0000000  1.2552000  3
   1307   1306   1305   1312     1  0.0000000  1.2552000  3
   1307   1306   1318   1330     1  0.0000000  0.6508444  3
   1307   1306   1318   1319     1  0.0000000  0.6508444  3
   1307   1306   1318   1320     1  0.0000000  0.6508444  3
   1308   1306   1305   1309     1  0.0000000  1.2552000  3
   1308   1306   1305   1312     1  0.0000000  1.2552000  3
   1308   1306   1318   1330     1  0.0000000  0.6508444  3
   1308   1306   1318   1319     1  0.0000000  0.6508444  3
   1308   1306   1318   1320     1  0.0000000  0.6508444  3
   1309   1305   1312   1313     1  0.0000000  1.2552000  3
   1309   1305   1312   1314     1  0.0000000  1.2552000  3
   1309   1321   1327   1328     1  0.0000000  0.6508444  3
   1309   1321   1327   1329     1  0.0000000  0.6508444  3
   1310   1309   1305   1312     1  0.0000000  1.2552000  3
   1310   1309   1321   1327     1  0.0000000  0.6508444  3
   1310   1309   1321   1322     1  0.0000000  0.6508444  3
   1310   1309   1321   1323     1  0.0000000  0.6508444  3
   1311   1309   1305   1312     1  0.0000000  1.2552000  3
   1311   1309   1321   1327     1  0.0000000  0.6508444  3
   1311   1309   1321   1322     1  0.0000000  0.6508444  3
   1311   1309   1321   1323     1  0.0000000  0.6508444  3
   1312   1315   1324   1325     1  0.0000000  0.6508444  3
   1312   1315   1324   1326     1  0.0000000  0.6508444  3
   1313   1312   1315   1324     1  0.0000000  0.6508444  3
   1313   1312   1315   1316     1  0.0000000  0.6508444  3
   1313   1312   1315   1317     1  0.0000000  0.6508444  3
   1314   1312   1315   1324     1  0.0000000  0.6508444  3
   1314   1312   1315   1316     1  0.0000000  0.6508444  3
   1314   1312   1315   1317     1  0.0000000  0.6508444  3
   1316   1315   1324   1333     1  0.0000000  1.0460000  1
   1316   1315   1324   1333     1  0.0000000  0.0000000  3
   1316   1315   1324   1325     1  0.0000000  0.6508444  3
   1316   1315   1324   1326     1  0.0000000  0.6508444  3
   1317   1315   1324   1333     1  0.0000000  1.0460000  1
   1317   1315   1324   1333     1  0.0000000  0.0000000  3
   1317   1315   1324   1325     1  0.0000000  0.6508444  3
   1317   1315   1324   1326     1  0.0000000  0.6508444  3
   1319   1318   1330   2725     1  0.0000000  1.0460000  1
   1319   1318   1330   2725     1  0.0000000  0.0000000  3
   1319   1318   1330   1331     1  0.0000000  0.6508444  3
   1319   1318   1330   1332     1  0.0000000  0.6508444  3
   1320   1318   1330   2725     1  0.0000000  1.0460000  1
   1320   1318   1330   2725     1  0.0000000  0.0000000  3
   1320   1318   1330   1331     1  0.0000000  0.6508444  3
   1320   1318   1330   1332     1  0.0000000  0.6508444  3
   1322   1321   1327   2696     1  0.0000000  1.0460000  1
   1322   1321   1327   2696     1  0.0000000  0.0000000  3
   1322   1321   1327   1328     1  0.0000000  0.6508444  3
   1322   1321   1327   1329     1  0.0000000  0.6508444  3
   1323   1321   1327   2696     1  0.0000000  1.0460000  1
   1323   1321   1327   2696     1  0.0000000  0.0000000  3
   1323   1321   1327   1328     1  0.0000000  0.6508444  3
   1323   1321   1327   1329     1  0.0000000  0.6508444  3
   1327   2696   2687   2688     1  0.0000000  1.6038667  3
   1327   2696   2687   2689     1  0.0000000  1.6038667  3
   1328   1327   2696   2687     1  0.0000000  1.6038667  3
   1329   1327   2696   2687     1  0.0000000  1.6038667  3
   1330   2725   2716   2717     1  0.0000000  1.6038667  3
   1330   2725   2716   2718     1  0.0000000  1.6038667  3
   1331   1330   2725   2716     1  0.0000000  1.6038667  3
   1332   1330   2725   2716     1  0.0000000  1.6038667  3
   1334   1335   1347   1348     1  0.0000000  0.6508444  3
   1334   1335   1347   1349     1  0.0000000  0.6508444  3
   1334   1338   1350   1351     1  0.0000000  0.6508444  3
   1334   1338   1350   1352     1  0.0000000  0.6508444  3
   1334   1341   1344   1345     1  0.0000000  0.6508444  3
   1334   1341   1344   1346     1  0.0000000  0.6508444  3
   1335   1334   1338   1339     1  0.0000000  1.2552000  3
   1335   1334   1338   1340     1  0.0000000  1.2552000  3
   1335   1334   1341   1342     1  0.0000000  1.2552000  3
   1335   1334   1341   1343     1  0.0000000  1.2552000  3
   1335   1347   1359   1360     1  0.0000000  0.6508444  3
   1335   1347   1359   1361     1  0.0000000  0.6508444  3
   1336   1335   1334   1338     1  0.0000000  1.2552000  3
   1336   1335   1334   1341     1  0.0000000  1.2552000  3
   1336   1335   1347   1359     1  0.0000000  0.6508444  3
   1336   1335   1347   1348     1  0.0000000  0.6508444  3
   1336   1335   1347   1349     1  0.0000000  0.6508444  3
   1337   1335   1334   1338     1  0.0000000  1.2552000  3
   1337   1335   1334   1341     1  0.0000000  1.2552000  3
   1337   1335   1347   1359     1  0.0000000  0.6508444  3
   1337   1335   1347   1348     1  0.0000000  0.6508444  3
   1337   1335   1347   1349     1  0.0000000  0.6508444  3
   1338   1334   1341   1342     1  0.0000000  1.2552000  3
   1338   1334   1341   1343     1  0.0000000  1.2552000  3
   1338   1350   1356   1357     1  0.0000000  0.6508444  3
   1338   1350   1356   1358     1  0.0000000  0.6508444  3
   1339   1338   1334   1341     1  0.0000000  1.2552000  3
   1339   1338   1350   1356     1  0.0000000  0.6508444  3
   1339   1338   1350   1351     1  0.0000000  0.6508444  3
   1339   1338   1350   1352     1  0.0000000  0.6508444  3
   1340   1338   1334   1341     1  0.0000000  1.2552000  3
   1340   1338   1350   1356     1  0.0000000  0.6508444  3
   1340   1338   1350   1351     1  0.0000000  0.6508444  3
   1340   1338   1350   1352     1  0.0000000  0.6508444  3
   1341   1344   1353   1354     1  0.0000000  0.6508444  3
   1341   1344   1353   1355     1  0.0000000  0.6508444  3
   1342   1341   1344   1353     1  0.0000000  0.6508444  3
   1342   1341   1344   1345     1  0.0000000  0.6508444  3
   1342   1341   1344   1346     1  0.0000000  0.6508444  3
   1343   1341   1344   1353     1  0.0000000  0.6508444  3
   1343   1341   1344   1345     1  0.0000000  0.6508444  3
   1343   1341   1344   1346     1  0.0000000  0.6508444  3
   1345   1344   1353   1362     1  0.0000000  1.0460000  1
   1345   1344   1353   1362     1  0.0000000  0.0000000  3
   1345   1344   1353   1354     1  0.0000000  0.6508444  3
   1345   1344   1353   1355     1  0.0000000  0.6508444  3
   1346   1344   1353   1362     1  0.0000000  1.0460000  1
   1346   1344   1353   1362     1  0.0000000  0.0000000  3
   1346   1344   1353   1354     1  0.0000000  0.6508444  3
   1346   1344   1353   1355     1  0.0000000  0.6508444  3
   1348   1347   1359   2787     1  0.0000000  1.0460000  1
   1348   1347   1359   2787     1  0.0000000  0.0000000  3
   1348   1347   1359   1360     1  0.0000000  0.6508444  3
   1348   1347   1359   1361     1  0.0000000  0.6508444  3
   1349   1347   1359   2787     1  0.0000000  1.0460000  1
   1349   1347   1359   2787     1  0.0000000  0.0000000  3
   1349   1347   1359   1360     1  0.0000000  0.6508444  3
   1349   1347   1359   1361     1  0.0000000  0.6508444  3
   1351   1350   1356   2756     1  0.0000000  1.0460000  1
   1351   1350   1356   2756     1  0.0000000  0.0000000  3
   1351   1350   1356   1357     1  0.0000000  0.6508444  3
   1351   1350   1356   1358     1  0.0000000  0.6508444  3
   1352   1350   1356   2756     1  0.0000000  1.0460000  1
   1352   1350   1356   2756     1  0.0000000  0.0000000  3
   1352   1350   1356   1357     1  0.0000000  0.6508444  3
   1352   1350   1356   1358     1  0.0000000  0.6508444  3
   1356   2756   2726   2727     1  0.0000000  1.6038667  3
   1356   2756   2726   2728     1  0.0000000  1.6038667  3
   1357   1356   2756   2726     1  0.0000000  1.6038667  3
   1358   1356   2756   2726     1  0.0000000  1.6038667  3
   1359   2787   2757   2758     1  0.0000000  1.6038667  3
   1359   2787   2757   2759     1  0.0000000  1.6038667  3
   1360   1359   2787   2757     1  0.0000000  1.6038667  3
   1361   1359   2787   2757     1  0.0000000  1.6038667  3
   1363   1364   1376   1377     1  0.0000000  0.6508444  3
   1363   1364   1376   1378     1  0.0000000  0.6508444  3
   1363   1367   1379   1380     1  0.0000000  0.6508444  3
   1363   1367   1379   1381     1  0.0000000  0.6508444  3
   1363   1370   1373   1374     1  0.0000000  0.6508444  3
   1363   1370   1373   1375     1  0.0000000  0.6508444  3
   1364   1363   1367   1368     1  0.0000000  1.2552000  3
   1364   1363   1367   1369     1  0.0000000  1.2552000  3
   1364   1363   1370   1371     1  0.0000000  1.2552000  3
   1364   1363   1370   1372     1  0.0000000  1.2552000  3
   1364   1376   1388   1389     1  0.0000000  0.6508444  3
   1364   1376   1388   1390     1  0.0000000  0.6508444  3
   1365   1364   1363   1367     1  0.0000000  1.2552000  3
   1365   1364   1363   1370     1  0.0000000  1.2552000  3
   1365   1364   1376   1388     1  0.0000000  0.6508444  3
   1365   1364   1376   1377     1  0.0000000  0.6508444  3
   1365   1364   1376   1378     1  0.0000000  0.6508444  3
   1366   1364   1363   1367     1  0.0000000  1.2552000  3
   1366   1364   1363   1370     1  0.0000000  1.2552000  3
   1366   1364   1376   1388     1  0.0000000  0.6508444  3
   1366   1364   1376   1377     1  0.0000000  0.6508444  3
   1366   1364   1376   1378     1  0.0000000  0.6508444  3
   1367   1363   1370   1371     1  0.0000000  1.2552000  3
   1367   1363   1370   1372     1  0.0000000  1.2552000  3
   1367   1379   1385   1386     1  0.0000000  0.6508444  3
   1367   1379   1385   1387     1  0.0000000  0.6508444  3
   1368   1367   1363   1370     1  0.0000000  1.2552000  3
   1368   1367   1379   1385     1  0.0000000  0.6508444  3
   1368   1367   1379   1380     1  0.0000000  0.6508444  3
   1368   1367   1379   1381     1  0.0000000  0.6508444  3
   1369   1367   1363   1370     1  0.0000000  1.2552000  3
   1369   1367   1379   1385     1  0.0000000  0.6508444  3
   1369   1367   1379   1380     1  0.0000000  0.6508444  3
   1369   1367   1379   1381     1  0.0000000  0.6508444  3
   1370   1373   1382   1383     1  0.0000000  0.6508444  3
   1370   1373   1382   1384     1  0.0000000  0.6508444  3
   1371   1370   1373   1382     1  0.0000000  0.6508444  3
   1371   1370   1373   1374     1  0.0000000  0.6508444  3
   1371   1370   1373   1375     1  0.0000000  0.6508444  3
   1372   1370   1373   1382     1  0.0000000  0.6508444  3
   1372   1370   1373   1374     1  0.0000000  0.6508444  3
   1372   1370   1373   1375     1  0.0000000  0.6508444  3
   1374   1373   1382   1391     1  0.0000000  1.0460000  1
   1374   1373   1382   1391     1  0.0000000  0.0000000  3
   1374   1373   1382   1383     1  0.0000000  0.6508444  3
   1374   1373   1382   1384     1  0.0000000  0.6508444  3
   1375   1373   1382   1391     1  0.0000000  1.0460000  1
   1375   1373   1382   1391     1  0.0000000  0.0000000  3
   1375   1373   1382   1383     1  0.0000000  0.6508444  3
   1375   1373   1382   1384     1  0.0000000  0.6508444  3
   1377   1376   1388   2849     1  0.0000000  1.0460000  1
   1377   1376   1388   2849     1  0.0000000  0.0000000  3
   1377   1376   1388   1389     1  0.0000000  0.6508444  3
   1377   1376   1388   1390     1  0.0000000  0.6508444  3
   1378   1376   1388   2849     1  0.0000000  1.0460000  1
   1378   1376   1388   2849     1  0.0000000  0.0000000  3
   1378   1376   1388   1389     1  0.0000000  0.6508444  3
   1378   1376   1388   1390     1  0.0000000  0.6508444  3
   1380   1379   1385   2818     1  0.0000000  1.0460000  1
   1380   1379   1385   2818     1  0.0000000  0.0000000  3
   1380   1379   1385   1386     1  0.0000000  0.6508444  3
   1380   1379   1385   1387     1  0.0000000  0.6508444  3
   1381   1379   1385   2818     1  0.0000000  1.0460000  1
   1381   1379   1385   2818     1  0.0000000  0.0000000  3
   1381   1379   1385   1386     1  0.0000000  0.6508444  3
   1381   1379   1385   1387     1  0.0000000  0.6508444  3
   1385   2818   2788   2789     1  0.0000000  1.6038667  3
   1385   2818   2788   2790     1  0.0000000  1.6038667  3
   1386   1385   2818   2788     1  0.0000000  1.6038667  3
   1387   1385   2818   2788     1  0.0000000  1.6038667  3
   1388   2849   2819   2820     1  0.0000000  1.6038667  3
   1388   2849   2819   2821     1  0.0000000  1.6038667  3
   1389   1388   2849   2819     1  0.0000000  1.6038667  3
   1390   1388   2849   2819     1  0.0000000  1.6038667  3
   1392   1393   1405   1406     1  0.0000000  0.6508444  3
   1392   1393   1405   1407     1  0.0000000  0.6508444  3
   1392   1396   1408   1409     1  0.0000000  0.6508444  3
   1392   1396   1408   1410     1  0.0000000  0.6508444  3
   1392   1399   1402   1403     1  0.0000000  0.6508444  3
   1392   1399   1402   1404     1  0.0000000  0.6508444  3
   1393   1392   1396   1397     1  0.0000000  1.2552000  3
   1393   1392   1396   1398     1  0.0000000  1.2552000  3
   1393   1392   1399   1400     1  0.0000000  1.2552000  3
   1393   1392   1399   1401     1  0.0000000  1.2552000  3
   1393   1405   1417   1418     1  0.0000000  0.6508444  3
   1393   1405   1417   1419     1  0.0000000  0.6508444  3
   1394   1393   1392   1396     1  0.0000000  1.2552000  3
   1394   1393   1392   1399     1  0.0000000  1.2552000  3
   1394   1393   1405   1417     1  0.0000000  0.6508444  3
   1394   1393   1405   1406     1  0.0000000  0.6508444  3
   1394   1393   1405   1407     1  0.0000000  0.6508444  3
   1395   1393   1392   1396     1  0.0000000  1.2552000  3
   1395   1393   1392   1399     1  0.0000000  1.2552000  3
   1395   1393   1405   1417     1  0.0000000  0.6508444  3
   1395   1393   1405   1406     1  0.0000000  0.6508444  3
   1395   1393   1405   1407     1  0.0000000  0.6508444  3
   1396   1392   1399   1400     1  0.0000000  1.2552000  3
   1396   1392   1399   1401     1  0.0000000  1.2552000  3
   1396   1408   1414   1415     1  0.0000000  0.6508444  3
   1396   1408   1414   1416     1  0.0000000  0.6508444  3
   1397   1396   1392   1399     1  0.0000000  1.2552000  3
   1397   1396   1408   1414     1  0.0000000  0.6508444  3
   1397   1396   1408   1409     1  0.0000000  0.6508444  3
   1397   1396   1408   1410     1  0.0000000  0.6508444  3
   1398   1396   1392   1399     1  0.0000000  1.2552000  3
   1398   1396   1408   1414     1  0.0000000  0.6508444  3
   1398   1396   1408   1409     1  0.0000000  0.6508444  3
   1398   1396   1408   1410     1  0.0000000  0.6508444  3
   1399   1402   1411   1412     1  0.0000000  0.6508444  3
   1399   1402   1411   1413     1  0.0000000  0.6508444  3
   1400   1399   1402   1411     1  0.0000000  0.6508444  3
   1400   1399   1402   1403     1  0.0000000  0.6508444  3
   1400   1399   1402   1404     1  0.0000000  0.6508444  3
   1401   1399   1402   1411     1  0.0000000  0.6508444  3
   1401   1399   1402   1403     1  0.0000000  0.6508444  3
   1401   1399   1402   1404     1  0.0000000  0.6508444  3
   1403   1402   1411   1420     1  0.0000000  1.0460000  1
   1403   1402   1411   1420     1  0.0000000  0.0000000  3
   1403   1402   1411   1412     1  0.0000000  0.6508444  3
   1403   1402   1411   1413     1  0.0000000  0.6508444  3
   1404   1402   1411   1420     1  0.0000000  1.0460000  1
   1404   1402   1411   1420     1  0.0000000  0.0000000  3
   1404   1402   1411   1412     1  0.0000000  0.6508444  3
   1404   1402   1411   1413     1  0.0000000  0.6508444  3
   1406   1405   1417   2911     1  0.0000000  1.0460000  1
   1406   1405   1417   2911     1  0.0000000  0.0000000  3
   1406   1405   1417   1418     1  0.0000000  0.6508444  3
   1406   1405   1417   1419     1  0.0000000  0.6508444  3
   1407   1405   1417   2911     1  0.0000000  1.0460000  1
   1407   1405   1417   2911     1  0.0000000  0.0000000  3
   1407   1405   1417   1418     1  0.0000000  0.6508444  3
   1407   1405   1417   1419     1  0.0000000  0.6508444  3
   1409   1408   1414   2880     1  0.0000000  1.0460000  1
   1409   1408   1414   2880     1  0.0000000  0.0000000  3
   1409   1408   1414   1415     1  0.0000000  0.6508444  3
   1409   1408   1414   1416     1  0.0000000  0.6508444  3
   1410   1408   1414   2880     1  0.0000000  1.0460000  1
   1410   1408   1414   2880     1  0.0000000  0.0000000  3
   1410   1408   1414   1415     1  0.0000000  0.6508444  3
   1410   1408   1414   1416     1  0.0000000  0.6508444  3
   1414   2880   2850   2851     1  0.0000000  1.6038667  3
   1414   2880   2850   2852     1  0.0000000  1.6038667  3
   1415   1414   2880   2850     1  0.0000000  1.6038667  3
   1416   1414   2880   2850     1  0.0000000  1.6038667  3
   1417   2911   2881   2882     1  0.0000000  1.6038667  3
   1417   2911   2881   2883     1  0.0000000  1.6038667  3
   1418   1417   2911   2881     1  0.0000000  1.6038667  3
   1419   1417   2911   2881     1  0.0000000  1.6038667  3
   1421   1422   1434   1435     1  0.0000000  0.6508444  3
   1421   1422   1434   1436     1  0.0000000  0.6508444  3
   1421   1425   1437   1438     1  0.0000000  0.6508444  3
   1421   1425   1437   1439     1  0.0000000  0.6508444  3
   1421   1428   1431   1432     1  0.0000000  0.6508444  3
   1421   1428   1431   1433     1  0.0000000  0.6508444  3
   1422   1421   1425   1426     1  0.0000000  1.2552000  3
   1422   1421   1425   1427     1  0.0000000  1.2552000  3
   1422   1421   1428   1429     1  0.0000000  1.2552000  3
   1422   1421   1428   1430     1  0.0000000  1.2552000  3
   1422   1434   1446   1447     1  0.0000000  0.6508444  3
   1422   1434   1446   1448     1  0.0000000  0.6508444  3
   1423   1422   1421   1425     1  0.0000000  1.2552000  3
   1423   1422   1421   1428     1  0.0000000  1.2552000  3
   1423   1422   1434   1446     1  0.0000000  0.6508444  3
   1423   1422   1434   1435     1  0.0000000  0.6508444  3
   1423   1422   1434   1436     1  0.0000000  0.6508444  3
   1424   1422   1421   1425     1  0.0000000  1.2552000  3
   1424   1422   1421   1428     1  0.0000000  1.2552000  3
   1424   1422   1434   1446     1  0.0000000  0.6508444  3
   1424   1422   1434   1435     1  0.0000000  0.6508444  3
   1424   1422   1434   1436     1  0.0000000  0.6508444  3
   1425   1421   1428   1429     1  0.0000000  1.2552000  3
   1425   1421   1428   1430     1  0.0000000  1.2552000  3
   1425   1437   1443   1444     1  0.0000000  0.6508444  3
   1425   1437   1443   1445     1  0.0000000  0.6508444  3
   1426   1425   1421   1428     1  0.0000000  1.2552000  3
   1426   1425   1437   1443     1  0.0000000  0.6508444  3
   1426   1425   1437   1438     1  0.0000000  0.6508444  3
   1426   1425   1437   1439     1  0.0000000  0.6508444  3
   1427   1425   1421   1428     1  0.0000000  1.2552000  3
   1427   1425   1437   1443     1  0.0000000  0.6508444  3
   1427   1425   1437   1438     1  0.0000000  0.6508444  3
   1427   1425   1437   1439     1  0.0000000  0.6508444  3
   1428   1431   1440   1441     1  0.0000000  0.6508444  3
   1428   1431   1440   1442     1  0.0000000  0.6508444  3
   1429   1428   1431   1440     1  0.0000000  0.6508444  3
   1429   1428   1431   1432     1  0.0000000  0.6508444  3
   1429   1428   1431   1433     1  0.0000000  0.6508444  3
   1430   1428   1431   1440     1  0.0000000  0.6508444  3
   1430   1428   1431   1432     1  0.0000000  0.6508444  3
   1430   1428   1431   1433     1  0.0000000  0.6508444  3
   1432   1431   1440   1449     1  0.0000000  1.0460000  1
   1432   1431   1440   1449     1  0.0000000  0.0000000  3
   1432   1431   1440   1441     1  0.0000000  0.6508444  3
   1432   1431   1440   1442     1  0.0000000  0.6508444  3
   1433   1431   1440   1449     1  0.0000000  1.0460000  1
   1433   1431   1440   1449     1  0.0000000  0.0000000  3
   1433   1431   1440   1441     1  0.0000000  0.6508444  3
   1433   1431   1440   1442     1  0.0000000  0.6508444  3
   1435   1434   1446   2973     1  0.0000000  1.0460000  1
   1435   1434   1446   2973     1  0.0000000  0.0000000  3
   1435   1434   1446   1447     1  0.0000000  0.6508444  3
   1435   1434   1446   1448     1  0.0000000  0.6508444  3
   1436   1434   1446   2973     1  0.0000000  1.0460000  1
   1436   1434   1446   2973     1  0.0000000  0.0000000  3
   1436   1434   1446   1447     1  0.0000000  0.6508444  3
   1436   1434   1446   1448     1  0.0000000  0.6508444  3
   1438   1437   1443   2942     1  0.0000000  1.0460000  1
   1438   1437   1443   2942     1  0.0000000  0.0000000  3
   1438   1437   1443   1444     1  0.0000000  0.6508444  3
   1438   1437   1443   1445     1  0.0000000  0.6508444  3
   1439   1437   1443   2942     1  0.0000000  1.0460000  1
   1439   1437   1443   2942     1  0.0000000  0.0000000  3
   1439   1437   1443   1444     1  0.0000000  0.6508444  3
   1439   1437   1443   1445     1  0.0000000  0.6508444  3
   1443   2942   2912   2913     1  0.0000000  1.6038667  3
   1443   2942   2912   2914     1  0.0000000  1.6038667  3
   1444   1443   2942   2912     1  0.0000000  1.6038667  3
   1445   1443   2942   2912     1  0.0000000  1.6038667  3
   1446   2973   2943   2944     1  0.0000000  1.6038667  3
   1446   2973   2943   2945     1  0.0000000  1.6038667  3
   1447   1446   2973   2943     1  0.0000000  1.6038667  3
   1448   1446   2973   2943     1  0.0000000  1.6038667  3
   1450   1451   1463   1464     1  0.0000000  0.6508444  3
   1450   1451   1463   1465     1  0.0000000  0.6508444  3
   1450   1454   1466   1467     1  0.0000000  0.6508444  3
   1450   1454   1466   1468     1  0.0000000  0.6508444  3
   1450   1457   1460   1461     1  0.0000000  0.6508444  3
   1450   1457   1460   1462     1  0.0000000  0.6508444  3
   1451   1450   1454   1455     1  0.0000000  1.2552000  3
   1451   1450   1454   1456     1  0.0000000  1.2552000  3
   1451   1450   1457   1458     1  0.0000000  1.2552000  3
   1451   1450   1457   1459     1  0.0000000  1.2552000  3
   1451   1463   1475   1476     1  0.0000000  0.6508444  3
   1451   1463   1475   1477     1  0.0000000  0.6508444  3
   1452   1451   1450   1454     1  0.0000000  1.2552000  3
   1452   1451   1450   1457     1  0.0000000  1.2552000  3
   1452   1451   1463   1475     1  0.0000000  0.6508444  3
   1452   1451   1463   1464     1  0.0000000  0.6508444  3
   1452   1451   1463   1465     1  0.0000000  0.6508444  3
   1453   1451   1450   1454     1  0.0000000  1.2552000  3
   1453   1451   1450   1457     1  0.0000000  1.2552000  3
   1453   1451   1463   1475     1  0.0000000  0.6508444  3
   1453   1451   1463   1464     1  0.0000000  0.6508444  3
   1453   1451   1463   1465     1  0.0000000  0.6508444  3
   1454   1450   1457   1458     1  0.0000000  1.2552000  3
   1454   1450   1457   1459     1  0.0000000  1.2552000  3
   1454   1466   1472   1473     1  0.0000000  0.6508444  3
   1454   1466   1472   1474     1  0.0000000  0.6508444  3
   1455   1454   1450   1457     1  0.0000000  1.2552000  3
   1455   1454   1466   1472     1  0.0000000  0.6508444  3
   1455   1454   1466   1467     1  0.0000000  0.6508444  3
   1455   1454   1466   1468     1  0.0000000  0.6508444  3
   1456   1454   1450   1457     1  0.0000000  1.2552000  3
   1456   1454   1466   1472     1  0.0000000  0.6508444  3
   1456   1454   1466   1467     1  0.0000000  0.6508444  3
   1456   1454   1466   1468     1  0.0000000  0.6508444  3
   1457   1460   1469   1470     1  0.0000000  0.6508444  3
   1457   1460   1469   1471     1  0.0000000  0.6508444  3
   1458   1457   1460   1469     1  0.0000000  0.6508444  3
   1458   1457   1460   1461     1  0.0000000  0.6508444  3
   1458   1457   1460   1462     1  0.0000000  0.6508444  3
   1459   1457   1460   1469     1  0.0000000  0.6508444  3
   1459   1457   1460   1461     1  0.0000000  0.6508444  3
   1459   1457   1460   1462     1  0.0000000  0.6508444  3
   1461   1460   1469   1478     1  0.0000000  1.0460000  1
   1461   1460   1469   1478     1  0.0000000  0.0000000  3
   1461   1460   1469   1470     1  0.0000000  0.6508444  3
   1461   1460   1469   1471     1  0.0000000  0.6508444  3
   1462   1460   1469   1478     1  0.0000000  1.0460000  1
   1462   1460   1469   1478     1  0.0000000  0.0000000  3
   1462   1460   1469   1470     1  0.0000000  0.6508444  3
   1462   1460   1469   1471     1  0.0000000  0.6508444  3
   1464   1463   1475   3035     1  0.0000000  1.0460000  1
   1464   1463   1475   3035     1  0.0000000  0.0000000  3
   1464   1463   1475   1476     1  0.0000000  0.6508444  3
   1464   1463   1475   1477     1  0.0000000  0.6508444  3
   1465   1463   1475   3035     1  0.0000000  1.0460000  1
   1465   1463   1475   3035     1  0.0000000  0.0000000  3
   1465   1463   1475   1476     1  0.0000000  0.6508444  3
   1465   1463   1475   1477     1  0.0000000  0.6508444  3
   1467   1466   1472   3004     1  0.0000000  1.0460000  1
   1467   1466   1472   3004     1  0.0000000  0.0000000  3
   1467   1466   1472   1473     1  0.0000000  0.6508444  3
   1467   1466   1472   1474     1  0.0000000  0.6508444  3
   1468   1466   1472   3004     1  0.0000000  1.0460000  1
   1468   1466   1472   3004     1  0.0000000  0.0000000  3
   1468   1466   1472   1473     1  0.0000000  0.6508444  3
   1468   1466   1472   1474     1  0.0000000  0.6508444  3
   1472   3004   2974   2975     1  0.0000000  1.6038667  3
   1472   3004   2974   2976     1  0.0000000  1.6038667  3
   1473   1472   3004   2974     1  0.0000000  1.6038667  3
   1474   1472   3004   2974     1  0.0000000  1.6038667  3
   1475   3035   3005   3006     1  0.0000000  1.6038667  3
   1475   3035   3005   3007     1  0.0000000  1.6038667  3
   1476   1475   3035   3005     1  0.0000000  1.6038667  3
   1477   1475   3035   3005     1  0.0000000  1.6038667  3
   1479   1480   1492   1493     1  0.0000000  0.6508444  3
   1479   1480   1492   1494     1  0.0000000  0.6508444  3
   1479   1483   1495   1496     1  0.0000000  0.6508444  3
   1479   1483   1495   1497     1  0.0000000  0.6508444  3
   1479   1486   1489   1490     1  0.0000000  0.6508444  3
   1479   1486   1489   1491     1  0.0000000  0.6508444  3
   1480   1479   1483   1484     1  0.0000000  1.2552000  3
   1480   1479   1483   1485     1  0.0000000  1.2552000  3
   1480   1479   1486   1487     1  0.0000000  1.2552000  3
   1480   1479   1486   1488     1  0.0000000  1.2552000  3
   1480   1492   1504   1505     1  0.0000000  0.6508444  3
   1480   1492   1504   1506     1  0.0000000  0.6508444  3
   1481   1480   1479   1483     1  0.0000000  1.2552000  3
   1481   1480   1479   1486     1  0.0000000  1.2552000  3
   1481   1480   1492   1504     1  0.0000000  0.6508444  3
   1481   1480   1492   1493     1  0.0000000  0.6508444  3
   1481   1480   1492   1494     1  0.0000000  0.6508444  3
   1482   1480   1479   1483     1  0.0000000  1.2552000  3
   1482   1480   1479   1486     1  0.0000000  1.2552000  3
   1482   1480   1492   1504     1  0.0000000  0.6508444  3
   1482   1480   1492   1493     1  0.0000000  0.6508444  3
   1482   1480   1492   1494     1  0.0000000  0.6508444  3
   1483   1479   1486   1487     1  0.0000000  1.2552000  3
   1483   1479   1486   1488     1  0.0000000  1.2552000  3
   1483   1495   1501   1502     1  0.0000000  0.6508444  3
   1483   1495   1501   1503     1  0.0000000  0.6508444  3
   1484   1483   1479   1486     1  0.0000000  1.2552000  3
   1484   1483   1495   1501     1  0.0000000  0.6508444  3
   1484   1483   1495   1496     1  0.0000000  0.6508444  3
   1484   1483   1495   1497     1  0.0000000  0.6508444  3
   1485   1483   1479   1486     1  0.0000000  1.2552000  3
   1485   1483   1495   1501     1  0.0000000  0.6508444  3
   1485   1483   1495   1496     1  0.0000000  0.6508444  3
   1485   1483   1495   1497     1  0.0000000  0.6508444  3
   1486   1489   1498   1499     1  0.0000000  0.6508444  3
   1486   1489   1498   1500     1  0.0000000  0.6508444  3
   1487   1486   1489   1498     1  0.0000000  0.6508444  3
   1487   1486   1489   1490     1  0.0000000  0.6508444  3
   1487   1486   1489   1491     1  0.0000000  0.6508444  3
   1488   1486   1489   1498     1  0.0000000  0.6508444  3
   1488   1486   1489   1490     1  0.0000000  0.6508444  3
   1488   1486   1489   1491     1  0.0000000  0.6508444  3
   1490   1489   1498   1507     1  0.0000000  1.0460000  1
   1490   1489   1498   1507     1  0.0000000  0.0000000  3
   1490   1489   1498   1499     1  0.0000000  0.6508444  3
   1490   1489   1498   1500     1  0.0000000  0.6508444  3
   1491   1489   1498   1507     1  0.0000000  1.0460000  1
   1491   1489   1498   1507     1  0.0000000  0.0000000  3
   1491   1489   1498   1499     1  0.0000000  0.6508444  3
   1491   1489   1498   1500     1  0.0000000  0.6508444  3
   1493   1492   1504   3097     1  0.0000000  1.0460000  1
   1493   1492   1504   3097     1  0.0000000  0.0000000  3
   1493   1492   1504   1505     1  0.0000000  0.6508444  3
   1493   1492   1504   1506     1  0.0000000  0.6508444  3
   1494   1492   1504   3097     1  0.0000000  1.0460000  1
   1494   1492   1504   3097     1  0.0000000  0.0000000  3
   1494   1492   1504   1505     1  0.0000000  0.6508444  3
   1494   1492   1504   1506     1  0.0000000  0.6508444  3
   1496   1495   1501   3066     1  0.0000000  1.0460000  1
   1496   1495   1501   3066     1  0.0000000  0.0000000  3
   1496   1495   1501   1502     1  0.0000000  0.6508444  3
   1496   1495   1501   1503     1  0.0000000  0.6508444  3
   1497   1495   1501   3066     1  0.0000000  1.0460000  1
   1497   1495   1501   3066     1  0.0000000  0.0000000  3
   1497   1495   1501   1502     1  0.0000000  0.6508444  3
   1497   1495   1501   1503     1  0.0000000  0.6508444  3
   1501   3066   3036   3037     1  0.0000000  1.6038667  3
   1501   3066   3036   3038     1  0.0000000  1.6038667  3
   1502   1501   3066   3036     1  0.0000000  1.6038667  3
   1503   1501   3066   3036     1  0.0000000  1.6038667  3
   1504   3097   3067   3068     1  0.0000000  1.6038667  3
   1504   3097   3067   3069     1  0.0000000  1.6038667  3
   1505   1504   3097   3067     1  0.0000000  1.6038667  3
   1506   1504   3097   3067     1  0.0000000  1.6038667  3
   1508   1509   1521   1522     1  0.0000000  0.6508444  3
   1508   1509   1521   1523     1  0.0000000  0.6508444  3
   1508   1512   1524   1525     1  0.0000000  0.6508444  3
   1508   1512   1524   1526     1  0.0000000  0.6508444  3
   1508   1515   1518   1519     1  0.0000000  0.6508444  3
   1508   1515   1518   1520     1  0.0000000  0.6508444  3
   1509   1508   1512   1513     1  0.0000000  1.2552000  3
   1509   1508   1512   1514     1  0.0000000  1.2552000  3
   1509   1508   1515   1516     1  0.0000000  1.2552000  3
   1509   1508   1515   1517     1  0.0000000  1.2552000  3
   1509   1521   1533   1534     1  0.0000000  0.6508444  3
   1509   1521   1533   1535     1  0.0000000  0.6508444  3
   1510   1509   1508   1512     1  0.0000000  1.2552000  3
   1510   1509   1508   1515     1  0.0000000  1.2552000  3
   1510   1509   1521   1533     1  0.0000000  0.6508444  3
   1510   1509   1521   1522     1  0.0000000  0.6508444  3
   1510   1509   1521   1523     1  0.0000000  0.6508444  3
   1511   1509   1508   1512     1  0.0000000  1.2552000  3
   1511   1509   1508   1515     1  0.0000000  1.2552000  3
   1511   1509   1521   1533     1  0.0000000  0.6508444  3
   1511   1509   1521   1522     1  0.0000000  0.6508444  3
   1511   1509   1521   1523     1  0.0000000  0.6508444  3
   1512   1508   1515   1516     1  0.0000000  1.2552000  3
   1512   1508   1515   1517     1  0.0000000  1.2552000  3
   1512   1524   1530   1531     1  0.0000000  0.6508444  3
   1512   1524   1530   1532     1  0.0000000  0.6508444  3
   1513   1512   1508   1515     1  0.0000000  1.2552000  3
   1513   1512   1524   1530     1  0.0000000  0.6508444  3
   1513   1512   1524   1525     1  0.0000000  0.6508444  3
   1513   1512   1524   1526     1  0.0000000  0.6508444  3
   1514   1512   1508   1515     1  0.0000000  1.2552000  3
   1514   1512   1524   1530     1  0.0000000  0.6508444  3
   1514   1512   1524   1525     1  0.0000000  0.6508444  3
   1514   1512   1524   1526     1  0.0000000  0.6508444  3
   1515   1518   1527   1528     1  0.0000000  0.6508444  3
   1515   1518   1527   1529     1  0.0000000  0.6508444  3
   1516   1515   1518   1527     1  0.0000000  0.6508444  3
   1516   1515   1518   1519     1  0.0000000  0.6508444  3
   1516   1515   1518   1520     1  0.0000000  0.6508444  3
   1517   1515   1518   1527     1  0.0000000  0.6508444  3
   1517   1515   1518   1519     1  0.0000000  0.6508444  3
   1517   1515   1518   1520     1  0.0000000  0.6508444  3
   1519   1518   1527   1536     1  0.0000000  1.0460000  1
   1519   1518   1527   1536     1  0.0000000  0.0000000  3
   1519   1518   1527   1528     1  0.0000000  0.6508444  3
   1519   1518   1527   1529     1  0.0000000  0.6508444  3
   1520   1518   1527   1536     1  0.0000000  1.0460000  1
   1520   1518   1527   1536     1  0.0000000  0.0000000  3
   1520   1518   1527   1528     1  0.0000000  0.6508444  3
   1520   1518   1527   1529     1  0.0000000  0.6508444  3
   1522   1521   1533   3159     1  0.0000000  1.0460000  1
   1522   1521   1533   3159     1  0.0000000  0.0000000  3
   1522   1521   1533   1534     1  0.0000000  0.6508444  3
   1522   1521   1533   1535     1  0.0000000  0.6508444  3
   1523   1521   1533   3159     1  0.0000000  1.0460000  1
   1523   1521   1533   3159     1  0.0000000  0.0000000  3
   1523   1521   1533   1534     1  0.0000000  0.6508444  3
   1523   1521   1533   1535     1  0.0000000  0.6508444  3
   1525   1524   1530   3128     1  0.0000000  1.0460000  1
   1525   1524   1530   3128     1  0.0000000  0.0000000  3
   1525   1524   1530   1531     1  0.0000000  0.6508444  3
   1525   1524   1530   1532     1  0.0000000  0.6508444  3
   1526   1524   1530   3128     1  0.0000000  1.0460000  1
   1526   1524   1530   3128     1  0.0000000  0.0000000  3
   1526   1524   1530   1531     1  0.0000000  0.6508444  3
   1526   1524   1530   1532     1  0.0000000  0.6508444  3
   1530   3128   3098   3099     1  0.0000000  1.6038667  3
   1530   3128   3098   3100     1  0.0000000  1.6038667  3
   1531   1530   3128   3098     1  0.0000000  1.6038667  3
   1532   1530   3128   3098     1  0.0000000  1.6038667  3
   1533   3159   3129   3130     1  0.0000000  1.6038667  3
   1533   3159   3129   3131     1  0.0000000  1.6038667  3
   1534   1533   3159   3129     1  0.0000000  1.6038667  3
   1535   1533   3159   3129     1  0.0000000  1.6038667  3
   1537   1538   1550   1551     1  0.0000000  0.6508444  3
   1537   1538   1550   1552     1  0.0000000  0.6508444  3
   1537   1541   1553   1554     1  0.0000000  0.6508444  3
   1537   1541   1553   1555     1  0.0000000  0.6508444  3
   1537   1544   1547   1548     1  0.0000000  0.6508444  3
   1537   1544   1547   1549     1  0.0000000  0.6508444  3
   1538   1537   1541   1542     1  0.0000000  1.2552000  3
   1538   1537   1541   1543     1  0.0000000  1.2552000  3
   1538   1537   1544   1545     1  0.0000000  1.2552000  3
   1538   1537   1544   1546     1  0.0000000  1.2552000  3
   1538   1550   1562   1563     1  0.0000000  0.6508444  3
   1538   1550   1562   1564     1  0.0000000  0.6508444  3
   1539   1538   1537   1541     1  0.0000000  1.2552000  3
   1539   1538   1537   1544     1  0.0000000  1.2552000  3
   1539   1538   1550   1562     1  0.0000000  0.6508444  3
   1539   1538   1550   1551     1  0.0000000  0.6508444  3
   1539   1538   1550   1552     1  0.0000000  0.6508444  3
   1540   1538   1537   1541     1  0.0000000  1.2552000  3
   1540   1538   1537   1544     1  0.0000000  1.2552000  3
   1540   1538   1550   1562     1  0.0000000  0.6508444  3
   1540   1538   1550   1551     1  0.0000000  0.6508444  3
   1540   1538   1550   1552     1  0.0000000  0.6508444  3
   1541   1537   1544   1545     1  0.0000000  1.2552000  3
   1541   1537   1544   1546     1  0.0000000  1.2552000  3
   1541   1553   1559   1560     1  0.0000000  0.6508444  3
   1541   1553   1559   1561     1  0.0000000  0.6508444  3
   1542   1541   1537   1544     1  0.0000000  1.2552000  3
   1542   1541   1553   1559     1  0.0000000  0.6508444  3
   1542   1541   1553   1554     1  0.0000000  0.6508444  3
   1542   1541   1553   1555     1  0.0000000  0.6508444  3
   1543   1541   1537   1544     1  0.0000000  1.2552000  3
   1543   1541   1553   1559     1  0.0000000  0.6508444  3
   1543   1541   1553   1554     1  0.0000000  0.6508444  3
   1543   1541   1553   1555     1  0.0000000  0.6508444  3
   1544   1547   1556   1557     1  0.0000000  0.6508444  3
   1544   1547   1556   1558     1  0.0000000  0.6508444  3
   1545   1544   1547   1556     1  0.0000000  0.6508444  3
   1545   1544   1547   1548     1  0.0000000  0.6508444  3
   1545   1544   1547   1549     1  0.0000000  0.6508444  3
   1546   1544   1547   1556     1  0.0000000  0.6508444  3
   1546   1544   1547   1548     1  0.0000000  0.6508444  3
   1546   1544   1547   1549     1  0.0000000  0.6508444  3
   1548   1547   1556   1565     1  0.0000000  1.0460000  1
   1548   1547   1556   1565     1  0.0000000  0.0000000  3
   1548   1547   1556   1557     1  0.0000000  0.6508444  3
   1548   1547   1556   1558     1  0.0000000  0.6508444  3
   1549   1547   1556   1565     1  0.0000000  1.0460000  1
   1549   1547   1556   1565     1  0.0000000  0.0000000  3
   1549   1547   1556   1557     1  0.0000000  0.6508444  3
   1549   1547   1556   1558     1  0.0000000  0.6508444  3
   1551   1550   1562   3221     1  0.0000000  1.0460000  1
   1551   1550   1562   3221     1  0.0000000  0.0000000  3
   1551   1550   1562   1563     1  0.0000000  0.6508444  3
   1551   1550   1562   1564     1  0.0000000  0.6508444  3
   1552   1550   1562   3221     1  0.0000000  1.0460000  1
   1552   1550   1562   3221     1  0.0000000  0.0000000  3
   1552   1550   1562   1563     1  0.0000000  0.6508444  3
   1552   1550   1562   1564     1  0.0000000  0.6508444  3
   1554   1553   1559   3190     1  0.0000000  1.0460000  1
   1554   1553   1559   3190     1  0.0000000  0.0000000  3
   1554   1553   1559   1560     1  0.0000000  0.6508444  3
   1554   1553   1559   1561     1  0.0000000  0.6508444  3
   1555   1553   1559   3190     1  0.0000000  1.0460000  1
   1555   1553   1559   3190     1  0.0000000  0.0000000  3
   1555   1553   1559   1560     1  0.0000000  0.6508444  3
   1555   1553   1559   1561     1  0.0000000  0.6508444  3
   1559   3190   3160   3161     1  0.0000000  1.6038667  3
   1559   3190   3160   3162     1  0.0000000  1.6038667  3
   1560   1559   3190   3160     1  0.0000000  1.6038667  3
   1561   1559   3190   3160     1  0.0000000  1.6038667  3
   1562   3221   3191   3192     1  0.0000000  1.6038667  3
   1562   3221   3191   3193     1  0.0000000  1.6038667  3
   1563   1562   3221   3191     1  0.0000000  1.6038667  3
   1564   1562   3221   3191     1  0.0000000  1.6038667  3
   1566   1567   1579   1580     1  0.0000000  0.6508444  3
   1566   1567   1579   1581     1  0.0000000  0.6508444  3
   1566   1570   1582   1583     1  0.0000000  0.6508444  3
   1566   1570   1582   1584     1  0.0000000  0.6508444  3
   1566   1573   1576   1577     1  0.0000000  0.6508444  3
   1566   1573   1576   1578     1  0.0000000  0.6508444  3
   1567   1566   1570   1571     1  0.0000000  1.2552000  3
   1567   1566   1570   1572     1  0.0000000  1.2552000  3
   1567   1566   1573   1574     1  0.0000000  1.2552000  3
   1567   1566   1573   1575     1  0.0000000  1.2552000  3
   1567   1579   1591   1592     1  0.0000000  0.6508444  3
   1567   1579   1591   1593     1  0.0000000  0.6508444  3
   1568   1567   1566   1570     1  0.0000000  1.2552000  3
   1568   1567   1566   1573     1  0.0000000  1.2552000  3
   1568   1567   1579   1591     1  0.0000000  0.6508444  3
   1568   1567   1579   1580     1  0.0000000  0.6508444  3
   1568   1567   1579   1581     1  0.0000000  0.6508444  3
   1569   1567   1566   1570     1  0.0000000  1.2552000  3
   1569   1567   1566   1573     1  0.0000000  1.2552000  3
   1569   1567   1579   1591     1  0.0000000  0.6508444  3
   1569   1567   1579   1580     1  0.0000000  0.6508444  3
   1569   1567   1579   1581     1  0.0000000  0.6508444  3
   1570   1566   1573   1574     1  0.0000000  1.2552000  3
   1570   1566   1573   1575     1  0.0000000  1.2552000  3
   1570   1582   1588   1589     1  0.0000000  0.6508444  3
   1570   1582   1588   1590     1  0.0000000  0.6508444  3
   1571   1570   1566   1573     1  0.0000000  1.2552000  3
   1571   1570   1582   1588     1  0.0000000  0.6508444  3
   1571   1570   1582   1583     1  0.0000000  0.6508444  3
   1571   1570   1582   1584     1  0.0000000  0.6508444  3
   1572   1570   1566   1573     1  0.0000000  1.2552000  3
   1572   1570   1582   1588     1  0.0000000  0.6508444  3
   1572   1570   1582   1583     1  0.0000000  0.6508444  3
   1572   1570   1582   1584     1  0.0000000  0.6508444  3
   1573   1576   1585   1586     1  0.0000000  0.6508444  3
   1573   1576   1585   1587     1  0.0000000  0.6508444  3
   1574   1573   1576   1585     1  0.0000000  0.6508444  3
   1574   1573   1576   1577     1  0.0000000  0.6508444  3
   1574   1573   1576   1578     1  0.0000000  0.6508444  3
   1575   1573   1576   1585     1  0.0000000  0.6508444  3
   1575   1573   1576   1577     1  0.0000000  0.6508444  3
   1575   1573   1576   1578     1  0.0000000  0.6508444  3
   1577   1576   1585   1594     1  0.0000000  1.0460000  1
   1577   1576   1585   1594     1  0.0000000  0.0000000  3
   1577   1576   1585   1586     1  0.0000000  0.6508444  3
   1577   1576   1585   1587     1  0.0000000  0.6508444  3
   1578   1576   1585   1594     1  0.0000000  1.0460000  1
   1578   1576   1585   1594     1  0.0000000  0.0000000  3
   1578   1576   1585   1586     1  0.0000000  0.6508444  3
   1578   1576   1585   1587     1  0.0000000  0.6508444  3
   1580   1579   1591   3283     1  0.0000000  1.0460000  1
   1580   1579   1591   3283     1  0.0000000  0.0000000  3
   1580   1579   1591   1592     1  0.0000000  0.6508444  3
   1580   1579   1591   1593     1  0.0000000  0.6508444  3
   1581   1579   1591   3283     1  0.0000000  1.0460000  1
   1581   1579   1591   3283     1  0.0000000  0.0000000  3
   1581   1579   1591   1592     1  0.0000000  0.6508444  3
   1581   1579   1591   1593     1  0.0000000  0.6508444  3
   1583   1582   1588   3252     1  0.0000000  1.0460000  1
   1583   1582   1588   3252     1  0.0000000  0.0000000  3
   1583   1582   1588   1589     1  0.0000000  0.6508444  3
   1583   1582   1588   1590     1  0.0000000  0.6508444  3
   1584   1582   1588   3252     1  0.0000000  1.0460000  1
   1584   1582   1588   3252     1  0.0000000  0.0000000  3
   1584   1582   1588   1589     1  0.0000000  0.6508444  3
   1584   1582   1588   1590     1  0.0000000  0.6508444  3
   1588   3252   3222   3223     1  0.0000000  1.6038667  3
   1588   3252   3222   3224     1  0.0000000  1.6038667  3
   1589   1588   3252   3222     1  0.0000000  1.6038667  3
   1590   1588   3252   3222     1  0.0000000  1.6038667  3
   1591   3283   3253   3254     1  0.0000000  1.6038667  3
   1591   3283   3253   3255     1  0.0000000  1.6038667  3
   1592   1591   3283   3253     1  0.0000000  1.6038667  3
   1593   1591   3283   3253     1  0.0000000  1.6038667  3
   1595   1596   1608   1609     1  0.0000000  0.6508444  3
   1595   1596   1608   1610     1  0.0000000  0.6508444  3
   1595   1599   1611   1612     1  0.0000000  0.6508444  3
   1595   1599   1611   1613     1  0.0000000  0.6508444  3
   1595   1602   1605   1606     1  0.0000000  0.6508444  3
   1595   1602   1605   1607     1  0.0000000  0.6508444  3
   1596   1595   1599   1600     1  0.0000000  1.2552000  3
   1596   1595   1599   1601     1  0.0000000  1.2552000  3
   1596   1595   1602   1603     1  0.0000000  1.2552000  3
   1596   1595   1602   1604     1  0.0000000  1.2552000  3
   1596   1608   1620   1621     1  0.0000000  0.6508444  3
   1596   1608   1620   1622     1  0.0000000  0.6508444  3
   1597   1596   1595   1599     1  0.0000000  1.2552000  3
   1597   1596   1595   1602     1  0.0000000  1.2552000  3
   1597   1596   1608   1620     1  0.0000000  0.6508444  3
   1597   1596   1608   1609     1  0.0000000  0.6508444  3
   1597   1596   1608   1610     1  0.0000000  0.6508444  3
   1598   1596   1595   1599     1  0.0000000  1.2552000  3
   1598   1596   1595   1602     1  0.0000000  1.2552000  3
   1598   1596   1608   1620     1  0.0000000  0.6508444  3
   1598   1596   1608   1609     1  0.0000000  0.6508444  3
   1598   1596   1608   1610     1  0.0000000  0.6508444  3
   1599   1595   1602   1603     1  0.0000000  1.2552000  3
   1599   1595   1602   1604     1  0.0000000  1.2552000  3
   1599   1611   1617   1618     1  0.0000000  0.6508444  3
   1599   1611   1617   1619     1  0.0000000  0.6508444  3
   1600   1599   1595   1602     1  0.0000000  1.2552000  3
   1600   1599   1611   1617     1  0.0000000  0.6508444  3
   1600   1599   1611   1612     1  0.0000000  0.6508444  3
   1600   1599   1611   1613     1  0.0000000  0.6508444  3
   1601   1599   1595   1602     1  0.0000000  1.2552000  3
   1601   1599   1611   1617     1  0.0000000  0.6508444  3
   1601   1599   1611   1612     1  0.0000000  0.6508444  3
   1601   1599   1611   1613     1  0.0000000  0.6508444  3
   1602   1605   1614   1615     1  0.0000000  0.6508444  3
   1602   1605   1614   1616     1  0.0000000  0.6508444  3
   1603   1602   1605   1614     1  0.0000000  0.6508444  3
   1603   1602   1605   1606     1  0.0000000  0.6508444  3
   1603   1602   1605   1607     1  0.0000000  0.6508444  3
   1604   1602   1605   1614     1  0.0000000  0.6508444  3
   1604   1602   1605   1606     1  0.0000000  0.6508444  3
   1604   1602   1605   1607     1  0.0000000  0.6508444  3
   1606   1605   1614   1623     1  0.0000000  1.0460000  1
   1606   1605   1614   1623     1  0.0000000  0.0000000  3
   1606   1605   1614   1615     1  0.0000000  0.6508444  3
   1606   1605   1614   1616     1  0.0000000  0.6508444  3
   1607   1605   1614   1623     1  0.0000000  1.0460000  1
   1607   1605   1614   1623     1  0.0000000  0.0000000  3
   1607   1605   1614   1615     1  0.0000000  0.6508444  3
   1607   1605   1614   1616     1  0.0000000  0.6508444  3
   1609   1608   1620   3345     1  0.0000000  1.0460000  1
   1609   1608   1620   3345     1  0.0000000  0.0000000  3
   1609   1608   1620   1621     1  0.0000000  0.6508444  3
   1609   1608   1620   1622     1  0.0000000  0.6508444  3
   1610   1608   1620   3345     1  0.0000000  1.0460000  1
   1610   1608   1620   3345     1  0.0000000  0.0000000  3
   1610   1608   1620   1621     1  0.0000000  0.6508444  3
   1610   1608   1620   1622     1  0.0000000  0.6508444  3
   1612   1611   1617   3314     1  0.0000000  1.0460000  1
   1612   1611   1617   3314     1  0.0000000  0.0000000  3
   1612   1611   1617   1618     1  0.0000000  0.6508444  3
   1612   1611   1617   1619     1  0.0000000  0.6508444  3
   1613   1611   1617   3314     1  0.0000000  1.0460000  1
   1613   1611   1617   3314     1  0.0000000  0.0000000  3
   1613   1611   1617   1618     1  0.0000000  0.6508444  3
   1613   1611   1617   1619     1  0.0000000  0.6508444  3
   1617   3314   3284   3285     1  0.0000000  1.6038667  3
   1617   3314   3284   3286     1  0.0000000  1.6038667  3
   1618   1617   3314   3284     1  0.0000000  1.6038667  3
   1619   1617   3314   3284     1  0.0000000  1.6038667  3
   1620   3345   3315   3316     1  0.0000000  1.6038667  3
   1620   3345   3315   3317     1  0.0000000  1.6038667  3
   1621   1620   3345   3315     1  0.0000000  1.6038667  3
   1622   1620   3345   3315     1  0.0000000  1.6038667  3
   1624   1625   1637   1638     1  0.0000000  0.6508444  3
   1624   1625   1637   1639     1  0.0000000  0.6508444  3
   1624   1628   1640   1641     1  0.0000000  0.6508444  3
   1624   1628   1640   1642     1  0.0000000  0.6508444  3
   1624   1631   1634   1635     1  0.0000000  0.6508444  3
   1624   1631   1634   1636     1  0.0000000  0.6508444  3
   1625   1624   1628   1629     1  0.0000000  1.2552000  3
   1625   1624   1628   1630     1  0.0000000  1.2552000  3
   1625   1624   1631   1632     1  0.0000000  1.2552000  3
   1625   1624   1631   1633     1  0.0000000  1.2552000  3
   1625   1637   1649   1650     1  0.0000000  0.6508444  3
   1625   1637   1649   1651     1  0.0000000  0.6508444  3
   1626   1625   1624   1628     1  0.0000000  1.2552000  3
   1626   1625   1624   1631     1  0.0000000  1.2552000  3
   1626   1625   1637   1649     1  0.0000000  0.6508444  3
   1626   1625   1637   1638     1  0.0000000  0.6508444  3
   1626   1625   1637   1639     1  0.0000000  0.6508444  3
   1627   1625   1624   1628     1  0.0000000  1.2552000  3
   1627   1625   1624   1631     1  0.0000000  1.2552000  3
   1627   1625   1637   1649     1  0.0000000  0.6508444  3
   1627   1625   1637   1638     1  0.0000000  0.6508444  3
   1627   1625   1637   1639     1  0.0000000  0.6508444  3
   1628   1624   1631   1632     1  0.0000000  1.2552000  3
   1628   1624   1631   1633     1  0.0000000  1.2552000  3
   1628   1640   1646   1647     1  0.0000000  0.6508444  3
   1628   1640   1646   1648     1  0.0000000  0.6508444  3
   1629   1628   1624   1631     1  0.0000000  1.2552000  3
   1629   1628   1640   1646     1  0.0000000  0.6508444  3
   1629   1628   1640   1641     1  0.0000000  0.6508444  3
   1629   1628   1640   1642     1  0.0000000  0.6508444  3
   1630   1628   1624   1631     1  0.0000000  1.2552000  3
   1630   1628   1640   1646     1  0.0000000  0.6508444  3
   1630   1628   1640   1641     1  0.0000000  0.6508444  3
   1630   1628   1640   1642     1  0.0000000  0.6508444  3
   1631   1634   1643   1644     1  0.0000000  0.6508444  3
   1631   1634   1643   1645     1  0.0000000  0.6508444  3
   1632   1631   1634   1643     1  0.0000000  0.6508444  3
   1632   1631   1634   1635     1  0.0000000  0.6508444  3
   1632   1631   1634   1636     1  0.0000000  0.6508444  3
   1633   1631   1634   1643     1  0.0000000  0.6508444  3
   1633   1631   1634   1635     1  0.0000000  0.6508444  3
   1633   1631   1634   1636     1  0.0000000  0.6508444  3
   1635   1634   1643   1652     1  0.0000000  1.0460000  1
   1635   1634   1643   1652     1  0.0000000  0.0000000  3
   1635   1634   1643   1644     1  0.0000000  0.6508444  3
   1635   1634   1643   1645     1  0.0000000  0.6508444  3
   1636   1634   1643   1652     1  0.0000000  1.0460000  1
   1636   1634   1643   1652     1  0.0000000  0.0000000  3
   1636   1634   1643   1644     1  0.0000000  0.6508444  3
   1636   1634   1643   1645     1  0.0000000  0.6508444  3
   1638   1637   1649   3407     1  0.0000000  1.0460000  1
   1638   1637   1649   3407     1  0.0000000  0.0000000  3
   1638   1637   1649   1650     1  0.0000000  0.6508444  3
   1638   1637   1649   1651     1  0.0000000  0.6508444  3
   1639   1637   1649   3407     1  0.0000000  1.0460000  1
   1639   1637   1649   3407     1  0.0000000  0.0000000  3
   1639   1637   1649   1650     1  0.0000000  0.6508444  3
   1639   1637   1649   1651     1  0.0000000  0.6508444  3
   1641   1640   1646   3376     1  0.0000000  1.0460000  1
   1641   1640   1646   3376     1  0.0000000  0.0000000  3
   1641   1640   1646   1647     1  0.0000000  0.6508444  3
   1641   1640   1646   1648     1  0.0000000  0.6508444  3
   1642   1640   1646   3376     1  0.0000000  1.0460000  1
   1642   1640   1646   3376     1  0.0000000  0.0000000  3
   1642   1640   1646   1647     1  0.0000000  0.6508444  3
   1642   1640   1646   1648     1  0.0000000  0.6508444  3
   1646   3376   3346   3347     1  0.0000000  1.6038667  3
   1646   3376   3346   3348     1  0.0000000  1.6038667  3
   1647   1646   3376   3346     1  0.0000000  1.6038667  3
   1648   1646   3376   3346     1  0.0000000  1.6038667  3
   1649   3407   3377   3378     1  0.0000000  1.6038667  3
   1649   3407   3377   3379     1  0.0000000  1.6038667  3
   1650   1649   3407   3377     1  0.0000000  1.6038667  3
   1651   1649   3407   3377     1  0.0000000  1.6038667  3
   1653   1654   1666   1667     1  0.0000000  0.6508444  3
   1653   1654   1666   1668     1  0.0000000  0.6508444  3
   1653   1657   1669   1670     1  0.0000000  0.6508444  3
   1653   1657   1669   1671     1  0.0000000  0.6508444  3
   1653   1660   1663   1664     1  0.0000000  0.6508444  3
   1653   1660   1663   1665     1  0.0000000  0.6508444  3
   1654   1653   1657   1658     1  0.0000000  1.2552000  3
   1654   1653   1657   1659     1  0.0000000  1.2552000  3
   1654   1653   1660   1661     1  0.0000000  1.2552000  3
   1654   1653   1660   1662     1  0.0000000  1.2552000  3
   1654   1666   1678   1679     1  0.0000000  0.6508444  3
   1654   1666   1678   1680     1  0.0000000  0.6508444  3
   1655   1654   1653   1657     1  0.0000000  1.2552000  3
   1655   1654   1653   1660     1  0.0000000  1.2552000  3
   1655   1654   1666   1678     1  0.0000000  0.6508444  3
   1655   1654   1666   1667     1  0.0000000  0.6508444  3
   1655   1654   1666   1668     1  0.0000000  0.6508444  3
   1656   1654   1653   1657     1  0.0000000  1.2552000  3
   1656   1654   1653   1660     1  0.0000000  1.2552000  3
   1656   1654   1666   1678     1  0.0000000  0.6508444  3
   1656   1654   1666   1667     1  0.0000000  0.6508444  3
   1656   1654   1666   1668     1  0.0000000  0.6508444  3
   1657   1653   1660   1661     1  0.0000000  1.2552000  3
   1657   1653   1660   1662     1  0.0000000  1.2552000  3
   1657   1669   1675   1676     1  0.0000000  0.6508444  3
   1657   1669   1675   1677     1  0.0000000  0.6508444  3
   1658   1657   1653   1660     1  0.0000000  1.2552000  3
   1658   1657   1669   1675     1  0.0000000  0.6508444  3
   1658   1657   1669   1670     1  0.0000000  0.6508444  3
   1658   1657   1669   1671     1  0.0000000  0.6508444  3
   1659   1657   1653   1660     1  0.0000000  1.2552000  3
   1659   1657   1669   1675     1  0.0000000  0.6508444  3
   1659   1657   1669   1670     1  0.0000000  0.6508444  3
   1659   1657   1669   1671     1  0.0000000  0.6508444  3
   1660   1663   1672   1673     1  0.0000000  0.6508444  3
   1660   1663   1672   1674     1  0.0000000  0.6508444  3
   1661   1660   1663   1672     1  0.0000000  0.6508444  3
   1661   1660   1663   1664     1  0.0000000  0.6508444  3
   1661   1660   1663   1665     1  0.0000000  0.6508444  3
   1662   1660   1663   1672     1  0.0000000  0.6508444  3
   1662   1660   1663   1664     1  0.0000000  0.6508444  3
   1662   1660   1663   1665     1  0.0000000  0.6508444  3
   1664   1663   1672   1681     1  0.0000000  1.0460000  1
   1664   1663   1672   1681     1  0.0000000  0.0000000  3
   1664   1663   1672   1673     1  0.0000000  0.6508444  3
   1664   1663   1672   1674     1  0.0000000  0.6508444  3
   1665   1663   1672   1681     1  0.0000000  1.0460000  1
   1665   1663   1672   1681     1  0.0000000  0.0000000  3
   1665   1663   1672   1673     1  0.0000000  0.6508444  3
   1665   1663   1672   1674     1  0.0000000  0.6508444  3
   1667   1666   1678   3469     1  0.0000000  1.0460000  1
   1667   1666   1678   3469     1  0.0000000  0.0000000  3
   1667   1666   1678   1679     1  0.0000000  0.6508444  3
   1667   1666   1678   1680     1  0.0000000  0.6508444  3
   1668   1666   1678   3469     1  0.0000000  1.0460000  1
   1668   1666   1678   3469     1  0.0000000  0.0000000  3
   1668   1666   1678   1679     1  0.0000000  0.6508444  3
   1668   1666   1678   1680     1  0.0000000  0.6508444  3
   1670   1669   1675   3438     1  0.0000000  1.0460000  1
   1670   1669   1675   3438     1  0.0000000  0.0000000  3
   1670   1669   1675   1676     1  0.0000000  0.6508444  3
   1670   1669   1675   1677     1  0.0000000  0.6508444  3
   1671   1669   1675   3438     1  0.0000000  1.0460000  1
   1671   1669   1675   3438     1  0.0000000  0.0000000  3
   1671   1669   1675   1676     1  0.0000000  0.6508444  3
   1671   1669   1675   1677     1  0.0000000  0.6508444  3
   1675   3438   3408   3409     1  0.0000000  1.6038667  3
   1675   3438   3408   3410     1  0.0000000  1.6038667  3
   1676   1675   3438   3408     1  0.0000000  1.6038667  3
   1677   1675   3438   3408     1  0.0000000  1.6038667  3
   1678   3469   3439   3440     1  0.0000000  1.6038667  3
   1678   3469   3439   3441     1  0.0000000  1.6038667  3
   1679   1678   3469   3439     1  0.0000000  1.6038667  3
   1680   1678   3469   3439     1  0.0000000  1.6038667  3
   1682   1683   1695   1696     1  0.0000000  0.6508444  3
   1682   1683   1695   1697     1  0.0000000  0.6508444  3
   1682   1686   1698   1699     1  0.0000000  0.6508444  3
   1682   1686   1698   1700     1  0.0000000  0.6508444  3
   1682   1689   1692   1693     1  0.0000000  0.6508444  3
   1682   1689   1692   1694     1  0.0000000  0.6508444  3
   1683   1682   1686   1687     1  0.0000000  1.2552000  3
   1683   1682   1686   1688     1  0.0000000  1.2552000  3
   1683   1682   1689   1690     1  0.0000000  1.2552000  3
   1683   1682   1689   1691     1  0.0000000  1.2552000  3
   1683   1695   1707   1708     1  0.0000000  0.6508444  3
   1683   1695   1707   1709     1  0.0000000  0.6508444  3
   1684   1683   1682   1686     1  0.0000000  1.2552000  3
   1684   1683   1682   1689     1  0.0000000  1.2552000  3
   1684   1683   1695   1707     1  0.0000000  0.6508444  3
   1684   1683   1695   1696     1  0.0000000  0.6508444  3
   1684   1683   1695   1697     1  0.0000000  0.6508444  3
   1685   1683   1682   1686     1  0.0000000  1.2552000  3
   1685   1683   1682   1689     1  0.0000000  1.2552000  3
   1685   1683   1695   1707     1  0.0000000  0.6508444  3
   1685   1683   1695   1696     1  0.0000000  0.6508444  3
   1685   1683   1695   1697     1  0.0000000  0.6508444  3
   1686   1682   1689   1690     1  0.0000000  1.2552000  3
   1686   1682   1689   1691     1  0.0000000  1.2552000  3
   1686   1698   1704   1705     1  0.0000000  0.6508444  3
   1686   1698   1704   1706     1  0.0000000  0.6508444  3
   1687   1686   1682   1689     1  0.0000000  1.2552000  3
   1687   1686   1698   1704     1  0.0000000  0.6508444  3
   1687   1686   1698   1699     1  0.0000000  0.6508444  3
   1687   1686   1698   1700     1  0.0000000  0.6508444  3
   1688   1686   1682   1689     1  0.0000000  1.2552000  3
   1688   1686   1698   1704     1  0.0000000  0.6508444  3
   1688   1686   1698   1699     1  0.0000000  0.6508444  3
   1688   1686   1698   1700     1  0.0000000  0.6508444  3
   1689   1692   1701   1702     1  0.0000000  0.6508444  3
   1689   1692   1701   1703     1  0.0000000  0.6508444  3
   1690   1689   1692   1701     1  0.0000000  0.6508444  3
   1690   1689   1692   1693     1  0.0000000  0.6508444  3
   1690   1689   1692   1694     1  0.0000000  0.6508444  3
   1691   1689   1692   1701     1  0.0000000  0.6508444  3
   1691   1689   1692   1693     1  0.0000000  0.6508444  3
   1691   1689   1692   1694     1  0.0000000  0.6508444  3
   1693   1692   1701   1710     1  0.0000000  1.0460000  1
   1693   1692   1701   1710     1  0.0000000  0.0000000  3
   1693   1692   1701   1702     1  0.0000000  0.6508444  3
   1693   1692   1701   1703     1  0.0000000  0.6508444  3
   1694   1692   1701   1710     1  0.0000000  1.0460000  1
   1694   1692   1701   1710     1  0.0000000  0.0000000  3
   1694   1692   1701   1702     1  0.0000000  0.6508444  3
   1694   1692   1701   1703     1  0.0000000  0.6508444  3
   1696   1695   1707   3531     1  0.0000000  1.0460000  1
   1696   1695   1707   3531     1  0.0000000  0.0000000  3
   1696   1695   1707   1708     1  0.0000000  0.6508444  3
   1696   1695   1707   1709     1  0.0000000  0.6508444  3
   1697   1695   1707   3531     1  0.0000000  1.0460000  1
   1697   1695   1707   3531     1  0.0000000  0.0000000  3
   1697   1695   1707   1708     1  0.0000000  0.6508444  3
   1697   1695   1707   1709     1  0.0000000  0.6508444  3
   1699   1698   1704   3500     1  0.0000000  1.0460000  1
   1699   1698   1704   3500     1  0.0000000  0.0000000  3
   1699   1698   1704   1705     1  0.0000000  0.6508444  3
   1699   1698   1704   1706     1  0.0000000  0.6508444  3
   1700   1698   1704   3500     1  0.0000000  1.0460000  1
   1700   1698   1704   3500     1  0.0000000  0.0000000  3
   1700   1698   1704   1705     1  0.0000000  0.6508444  3
   1700   1698   1704   1706     1  0.0000000  0.6508444  3
   1704   3500   3470   3471     1  0.0000000  1.6038667  3
   1704   3500   3470   3472     1  0.0000000  1.6038667  3
   1705   1704   3500   3470     1  0.0000000  1.6038667  3
   1706   1704   3500   3470     1  0.0000000  1.6038667  3
   1707   3531   3501   3502     1  0.0000000  1.6038667  3
   1707   3531   3501   3503     1  0.0000000  1.6038667  3
   1708   1707   3531   3501     1  0.0000000  1.6038667  3
   1709   1707   3531   3501     1  0.0000000  1.6038667  3
   1711   1712   1724   1725     1  0.0000000  0.6508444  3
   1711   1712   1724   1726     1  0.0000000  0.6508444  3
   1711   1715   1727   1728     1  0.0000000  0.6508444  3
   1711   1715   1727   1729     1  0.0000000  0.6508444  3
   1711   1718   1721   1722     1  0.0000000  0.6508444  3
   1711   1718   1721   1723     1  0.0000000  0.6508444  3
   1712   1711   1715   1716     1  0.0000000  1.2552000  3
   1712   1711   1715   1717     1  0.0000000  1.2552000  3
   1712   1711   1718   1719     1  0.0000000  1.2552000  3
   1712   1711   1718   1720     1  0.0000000  1.2552000  3
   1712   1724   1736   1737     1  0.0000000  0.6508444  3
   1712   1724   1736   1738     1  0.0000000  0.6508444  3
   1713   1712   1711   1715     1  0.0000000  1.2552000  3
   1713   1712   1711   1718     1  0.0000000  1.2552000  3
   1713   1712   1724   1736     1  0.0000000  0.6508444  3
   1713   1712   1724   1725     1  0.0000000  0.6508444  3
   1713   1712   1724   1726     1  0.0000000  0.6508444  3
   1714   1712   1711   1715     1  0.0000000  1.2552000  3
   1714   1712   1711   1718     1  0.0000000  1.2552000  3
   1714   1712   1724   1736     1  0.0000000  0.6508444  3
   1714   1712   1724   1725     1  0.0000000  0.6508444  3
   1714   1712   1724   1726     1  0.0000000  0.6508444  3
   1715   1711   1718   1719     1  0.0000000  1.2552000  3
   1715   1711   1718   1720     1  0.0000000  1.2552000  3
   1715   1727   1733   1734     1  0.0000000  0.6508444  3
   1715   1727   1733   1735     1  0.0000000  0.6508444  3
   1716   1715   1711   1718     1  0.0000000  1.2552000  3
   1716   1715   1727   1733     1  0.0000000  0.6508444  3
   1716   1715   1727   1728     1  0.0000000  0.6508444  3
   1716   1715   1727   1729     1  0.0000000  0.6508444  3
   1717   1715   1711   1718     1  0.0000000  1.2552000  3
   1717   1715   1727   1733     1  0.0000000  0.6508444  3
   1717   1715   1727   1728     1  0.0000000  0.6508444  3
   1717   1715   1727   1729     1  0.0000000  0.6508444  3
   1718   1721   1730   1731     1  0.0000000  0.6508444  3
   1718   1721   1730   1732     1  0.0000000  0.6508444  3
   1719   1718   1721   1730     1  0.0000000  0.6508444  3
   1719   1718   1721   1722     1  0.0000000  0.6508444  3
   1719   1718   1721   1723     1  0.0000000  0.6508444  3
   1720   1718   1721   1730     1  0.0000000  0.6508444  3
   1720   1718   1721   1722     1  0.0000000  0.6508444  3
   1720   1718   1721   1723     1  0.0000000  0.6508444  3
   1722   1721   1730   1739     1  0.0000000  1.0460000  1
   1722   1721   1730   1739     1  0.0000000  0.0000000  3
   1722   1721   1730   1731     1  0.0000000  0.6508444  3
   1722   1721   1730   1732     1  0.0000000  0.6508444  3
   1723   1721   1730   1739     1  0.0000000  1.0460000  1
   1723   1721   1730   1739     1  0.0000000  0.0000000  3
   1723   1721   1730   1731     1  0.0000000  0.6508444  3
   1723   1721   1730   1732     1  0.0000000  0.6508444  3
   1725   1724   1736   3593     1  0.0000000  1.0460000  1
   1725   1724   1736   3593     1  0.0000000  0.0000000  3
   1725   1724   1736   1737     1  0.0000000  0.6508444  3
   1725   1724   1736   1738     1  0.0000000  0.6508444  3
   1726   1724   1736   3593     1  0.0000000  1.0460000  1
   1726   1724   1736   3593     1  0.0000000  0.0000000  3
   1726   1724   1736   1737     1  0.0000000  0.6508444  3
   1726   1724   1736   1738     1  0.0000000  0.6508444  3
   1728   1727   1733   3562     1  0.0000000  1.0460000  1
   1728   1727   1733   3562     1  0.0000000  0.0000000  3
   1728   1727   1733   1734     1  0.0000000  0.6508444  3
   1728   1727   1733   1735     1  0.0000000  0.6508444  3
   1729   1727   1733   3562     1  0.0000000  1.0460000  1
   1729   1727   1733   3562     1  0.0000000  0.0000000  3
   1729   1727   1733   1734     1  0.0000000  0.6508444  3
   1729   1727   1733   1735     1  0.0000000  0.6508444  3
   1733   3562   3532   3533     1  0.0000000  1.6038667  3
   1733   3562   3532   3534     1  0.0000000  1.6038667  3
   1734   1733   3562   3532     1  0.0000000  1.6038667  3
   1735   1733   3562   3532     1  0.0000000  1.6038667  3
   1736   3593   3563   3564     1  0.0000000  1.6038667  3
   1736   3593   3563   3565     1  0.0000000  1.6038667  3
   1737   1736   3593   3563     1  0.0000000  1.6038667  3
   1738   1736   3593   3563     1  0.0000000  1.6038667  3
   1740   1741   1753   1754     1  0.0000000  0.6508444  3
   1740   1741   1753   1755     1  0.0000000  0.6508444  3
   1740   1744   1756   1757     1  0.0000000  0.6508444  3
   1740   1744   1756   1758     1  0.0000000  0.6508444  3
   1740   1747   1750   1751     1  0.0000000  0.6508444  3
   1740   1747   1750   1752     1  0.0000000  0.6508444  3
   1741   1740   1744   1745     1  0.0000000  1.2552000  3
   1741   1740   1744   1746     1  0.0000000  1.2552000  3
   1741   1740   1747   1748     1  0.0000000  1.2552000  3
   1741   1740   1747   1749     1  0.0000000  1.2552000  3
   1741   1753   1765   1766     1  0.0000000  0.6508444  3
   1741   1753   1765   1767     1  0.0000000  0.6508444  3
   1742   1741   1740   1744     1  0.0000000  1.2552000  3
   1742   1741   1740   1747     1  0.0000000  1.2552000  3
   1742   1741   1753   1765     1  0.0000000  0.6508444  3
   1742   1741   1753   1754     1  0.0000000  0.6508444  3
   1742   1741   1753   1755     1  0.0000000  0.6508444  3
   1743   1741   1740   1744     1  0.0000000  1.2552000  3
   1743   1741   1740   1747     1  0.0000000  1.2552000  3
   1743   1741   1753   1765     1  0.0000000  0.6508444  3
   1743   1741   1753   1754     1  0.0000000  0.6508444  3
   1743   1741   1753   1755     1  0.0000000  0.6508444  3
   1744   1740   1747   1748     1  0.0000000  1.2552000  3
   1744   1740   1747   1749     1  0.0000000  1.2552000  3
   1744   1756   1762   1763     1  0.0000000  0.6508444  3
   1744   1756   1762   1764     1  0.0000000  0.6508444  3
   1745   1744   1740   1747     1  0.0000000  1.2552000  3
   1745   1744   1756   1762     1  0.0000000  0.6508444  3
   1745   1744   1756   1757     1  0.0000000  0.6508444  3
   1745   1744   1756   1758     1  0.0000000  0.6508444  3
   1746   1744   1740   1747     1  0.0000000  1.2552000  3
   1746   1744   1756   1762     1  0.0000000  0.6508444  3
   1746   1744   1756   1757     1  0.0000000  0.6508444  3
   1746   1744   1756   1758     1  0.0000000  0.6508444  3
   1747   1750   1759   1760     1  0.0000000  0.6508444  3
   1747   1750   1759   1761     1  0.0000000  0.6508444  3
   1748   1747   1750   1759     1  0.0000000  0.6508444  3
   1748   1747   1750   1751     1  0.0000000  0.6508444  3
   1748   1747   1750   1752     1  0.0000000  0.6508444  3
   1749   1747   1750   1759     1  0.0000000  0.6508444  3
   1749   1747   1750   1751     1  0.0000000  0.6508444  3
   1749   1747   1750   1752     1  0.0000000  0.6508444  3
   1751   1750   1759   1768     1  0.0000000  1.0460000  1
   1751   1750   1759   1768     1  0.0000000  0.0000000  3
   1751   1750   1759   1760     1  0.0000000  0.6508444  3
   1751   1750   1759   1761     1  0.0000000  0.6508444  3
   1752   1750   1759   1768     1  0.0000000  1.0460000  1
   1752   1750   1759   1768     1  0.0000000  0.0000000  3
   1752   1750   1759   1760     1  0.0000000  0.6508444  3
   1752   1750   1759   1761     1  0.0000000  0.6508444  3
   1754   1753   1765   3655     1  0.0000000  1.0460000  1
   1754   1753   1765   3655     1  0.0000000  0.0000000  3
   1754   1753   1765   1766     1  0.0000000  0.6508444  3
   1754   1753   1765   1767     1  0.0000000  0.6508444  3
   1755   1753   1765   3655     1  0.0000000  1.0460000  1
   1755   1753   1765   3655     1  0.0000000  0.0000000  3
   1755   1753   1765   1766     1  0.0000000  0.6508444  3
   1755   1753   1765   1767     1  0.0000000  0.6508444  3
   1757   1756   1762   3624     1  0.0000000  1.0460000  1
   1757   1756   1762   3624     1  0.0000000  0.0000000  3
   1757   1756   1762   1763     1  0.0000000  0.6508444  3
   1757   1756   1762   1764     1  0.0000000  0.6508444  3
   1758   1756   1762   3624     1  0.0000000  1.0460000  1
   1758   1756   1762   3624     1  0.0000000  0.0000000  3
   1758   1756   1762   1763     1  0.0000000  0.6508444  3
   1758   1756   1762   1764     1  0.0000000  0.6508444  3
   1762   3624   3594   3595     1  0.0000000  1.6038667  3
   1762   3624   3594   3596     1  0.0000000  1.6038667  3
   1763   1762   3624   3594     1  0.0000000  1.6038667  3
   1764   1762   3624   3594     1  0.0000000  1.6038667  3
   1765   3655   3625   3626     1  0.0000000  1.6038667  3
   1765   3655   3625   3627     1  0.0000000  1.6038667  3
   1766   1765   3655   3625     1  0.0000000  1.6038667  3
   1767   1765   3655   3625     1  0.0000000  1.6038667  3
   1769   1770   1782   1783     1  0.0000000  0.6508444  3
   1769   1770   1782   1784     1  0.0000000  0.6508444  3
   1769   1773   1785   1786     1  0.0000000  0.6508444  3
   1769   1773   1785   1787     1  0.0000000  0.6508444  3
   1769   1776   1779   1780     1  0.0000000  0.6508444  3
   1769   1776   1779   1781     1  0.0000000  0.6508444  3
   1770   1769   1773   1774     1  0.0000000  1.2552000  3
   1770   1769   1773   1775     1  0.0000000  1.2552000  3
   1770   1769   1776   1777     1  0.0000000  1.2552000  3
   1770   1769   1776   1778     1  0.0000000  1.2552000  3
   1770   1782   1794   1795     1  0.0000000  0.6508444  3
   1770   1782   1794   1796     1  0.0000000  0.6508444  3
   1771   1770   1769   1773     1  0.0000000  1.2552000  3
   1771   1770   1769   1776     1  0.0000000  1.2552000  3
   1771   1770   1782   1794     1  0.0000000  0.6508444  3
   1771   1770   1782   1783     1  0.0000000  0.6508444  3
   1771   1770   1782   1784     1  0.0000000  0.6508444  3
   1772   1770   1769   1773     1  0.0000000  1.2552000  3
   1772   1770   1769   1776     1  0.0000000  1.2552000  3
   1772   1770   1782   1794     1  0.0000000  0.6508444  3
   1772   1770   1782   1783     1  0.0000000  0.6508444  3
   1772   1770   1782   1784     1  0.0000000  0.6508444  3
   1773   1769   1776   1777     1  0.0000000  1.2552000  3
   1773   1769   1776   1778     1  0.0000000  1.2552000  3
   1773   1785   1791   1792     1  0.0000000  0.6508444  3
   1773   1785   1791   1793     1  0.0000000  0.6508444  3
   1774   1773   1769   1776     1  0.0000000  1.2552000  3
   1774   1773   1785   1791     1  0.0000000  0.6508444  3
   1774   1773   1785   1786     1  0.0000000  0.6508444  3
   1774   1773   1785   1787     1  0.0000000  0.6508444  3
   1775   1773   1769   1776     1  0.0000000  1.2552000  3
   1775   1773   1785   1791     1  0.0000000  0.6508444  3
   1775   1773   1785   1786     1  0.0000000  0.6508444  3
   1775   1773   1785   1787     1  0.0000000  0.6508444  3
   1776   1779   1788   1789     1  0.0000000  0.6508444  3
   1776   1779   1788   1790     1  0.0000000  0.6508444  3
   1777   1776   1779   1788     1  0.0000000  0.6508444  3
   1777   1776   1779   1780     1  0.0000000  0.6508444  3
   1777   1776   1779   1781     1  0.0000000  0.6508444  3
   1778   1776   1779   1788     1  0.0000000  0.6508444  3
   1778   1776   1779   1780     1  0.0000000  0.6508444  3
   1778   1776   1779   1781     1  0.0000000  0.6508444  3
   1780   1779   1788   1797     1  0.0000000  1.0460000  1
   1780   1779   1788   1797     1  0.0000000  0.0000000  3
   1780   1779   1788   1789     1  0.0000000  0.6508444  3
   1780   1779   1788   1790     1  0.0000000  0.6508444  3
   1781   1779   1788   1797     1  0.0000000  1.0460000  1
   1781   1779   1788   1797     1  0.0000000  0.0000000  3
   1781   1779   1788   1789     1  0.0000000  0.6508444  3
   1781   1779   1788   1790     1  0.0000000  0.6508444  3
   1783   1782   1794   3717     1  0.0000000  1.0460000  1
   1783   1782   1794   3717     1  0.0000000  0.0000000  3
   1783   1782   1794   1795     1  0.0000000  0.6508444  3
   1783   1782   1794   1796     1  0.0000000  0.6508444  3
   1784   1782   1794   3717     1  0.0000000  1.0460000  1
   1784   1782   1794   3717     1  0.0000000  0.0000000  3
   1784   1782   1794   1795     1  0.0000000  0.6508444  3
   1784   1782   1794   1796     1  0.0000000  0.6508444  3
   1786   1785   1791   3686     1  0.0000000  1.0460000  1
   1786   1785   1791   3686     1  0.0000000  0.0000000  3
   1786   1785   1791   1792     1  0.0000000  0.6508444  3
   1786   1785   1791   1793     1  0.0000000  0.6508444  3
   1787   1785   1791   3686     1  0.0000000  1.0460000  1
   1787   1785   1791   3686     1  0.0000000  0.0000000  3
   1787   1785   1791   1792     1  0.0000000  0.6508444  3
   1787   1785   1791   1793     1  0.0000000  0.6508444  3
   1791   3686   3656   3657     1  0.0000000  1.6038667  3
   1791   3686   3656   3658     1  0.0000000  1.6038667  3
   1792   1791   3686   3656     1  0.0000000  1.6038667  3
   1793   1791   3686   3656     1  0.0000000  1.6038667  3
   1794   3717   3687   3688     1  0.0000000  1.6038667  3
   1794   3717   3687   3689     1  0.0000000  1.6038667  3
   1795   1794   3717   3687     1  0.0000000  1.6038667  3
   1796   1794   3717   3687     1  0.0000000  1.6038667  3
   1798   1799   1811   1812     1  0.0000000  0.6508444  3
   1798   1799   1811   1813     1  0.0000000  0.6508444  3
   1798   1802   1814   1815     1  0.0000000  0.6508444  3
   1798   1802   1814   1816     1  0.0000000  0.6508444  3
   1798   1805   1808   1809     1  0.0000000  0.6508444  3
   1798   1805   1808   1810     1  0.0000000  0.6508444  3
   1799   1798   1802   1803     1  0.0000000  1.2552000  3
   1799   1798   1802   1804     1  0.0000000  1.2552000  3
   1799   1798   1805   1806     1  0.0000000  1.2552000  3
   1799   1798   1805   1807     1  0.0000000  1.2552000  3
   1799   1811   1823   1824     1  0.0000000  0.6508444  3
   1799   1811   1823   1825     1  0.0000000  0.6508444  3
   1800   1799   1798   1802     1  0.0000000  1.2552000  3
   1800   1799   1798   1805     1  0.0000000  1.2552000  3
   1800   1799   1811   1823     1  0.0000000  0.6508444  3
   1800   1799   1811   1812     1  0.0000000  0.6508444  3
   1800   1799   1811   1813     1  0.0000000  0.6508444  3
   1801   1799   1798   1802     1  0.0000000  1.2552000  3
   1801   1799   1798   1805     1  0.0000000  1.2552000  3
   1801   1799   1811   1823     1  0.0000000  0.6508444  3
   1801   1799   1811   1812     1  0.0000000  0.6508444  3
   1801   1799   1811   1813     1  0.0000000  0.6508444  3
   1802   1798   1805   1806     1  0.0000000  1.2552000  3
   1802   1798   1805   1807     1  0.0000000  1.2552000  3
   1802   1814   1820   1821     1  0.0000000  0.6508444  3
   1802   1814   1820   1822     1  0.0000000  0.6508444  3
   1803   1802   1798   1805     1  0.0000000  1.2552000  3
   1803   1802   1814   1820     1  0.0000000  0.6508444  3
   1803   1802   1814   1815     1  0.0000000  0.6508444  3
   1803   1802   1814   1816     1  0.0000000  0.6508444  3
   1804   1802   1798   1805     1  0.0000000  1.2552000  3
   1804   1802   1814   1820     1  0.0000000  0.6508444  3
   1804   1802   1814   1815     1  0.0000000  0.6508444  3
   1804   1802   1814   1816     1  0.0000000  0.6508444  3
   1805   1808   1817   1818     1  0.0000000  0.6508444  3
   1805   1808   1817   1819     1  0.0000000  0.6508444  3
   1806   1805   1808   1817     1  0.0000000  0.6508444  3
   1806   1805   1808   1809     1  0.0000000  0.6508444  3
   1806   1805   1808   1810     1  0.0000000  0.6508444  3
   1807   1805   1808   1817     1  0.0000000  0.6508444  3
   1807   1805   1808   1809     1  0.0000000  0.6508444  3
   1807   1805   1808   1810     1  0.0000000  0.6508444  3
   1809   1808   1817   1826     1  0.0000000  1.0460000  1
   1809   1808   1817   1826     1  0.0000000  0.0000000  3
   1809   1808   1817   1818     1  0.0000000  0.6508444  3
   1809   1808   1817   1819     1  0.0000000  0.6508444  3
   1810   1808   1817   1826     1  0.0000000  1.0460000  1
   1810   1808   1817   1826     1  0.0000000  0.0000000  3
   1810   1808   1817   1818     1  0.0000000  0.6508444  3
   1810   1808   1817   1819     1  0.0000000  0.6508444  3
   1812   1811   1823   3779     1  0.0000000  1.0460000  1
   1812   1811   1823   3779     1  0.0000000  0.0000000  3
   1812   1811   1823   1824     1  0.0000000  0.6508444  3
   1812   1811   1823   1825     1  0.0000000  0.6508444  3
   1813   1811   1823   3779     1  0.0000000  1.0460000  1
   1813   1811   1823   3779     1  0.0000000  0.0000000  3
   1813   1811   1823   1824     1  0.0000000  0.6508444  3
   1813   1811   1823   1825     1  0.0000000  0.6508444  3
   1815   1814   1820   3748     1  0.0000000  1.0460000  1
   1815   1814   1820   3748     1  0.0000000  0.0000000  3
   1815   1814   1820   1821     1  0.0000000  0.6508444  3
   1815   1814   1820   1822     1  0.0000000  0.6508444  3
   1816   1814   1820   3748     1  0.0000000  1.0460000  1
   1816   1814   1820   3748     1  0.0000000  0.0000000  3
   1816   1814   1820   1821     1  0.0000000  0.6508444  3
   1816   1814   1820   1822     1  0.0000000  0.6508444  3
   1820   3748   3718   3719     1  0.0000000  1.6038667  3
   1820   3748   3718   3720     1  0.0000000  1.6038667  3
   1821   1820   3748   3718     1  0.0000000  1.6038667  3
   1822   1820   3748   3718     1  0.0000000  1.6038667  3
   1823   3779   3749   3750     1  0.0000000  1.6038667  3
   1823   3779   3749   3751     1  0.0000000  1.6038667  3
   1824   1823   3779   3749     1  0.0000000  1.6038667  3
   1825   1823   3779   3749     1  0.0000000  1.6038667  3
   1827   1828   1840   1841     1  0.0000000  0.6508444  3
   1827   1828   1840   1842     1  0.0000000  0.6508444  3
   1827   1831   1843   1844     1  0.0000000  0.6508444  3
   1827   1831   1843   1845     1  0.0000000  0.6508444  3
   1827   1834   1837   1838     1  0.0000000  0.6508444  3
   1827   1834   1837   1839     1  0.0000000  0.6508444  3
   1828   1827   1831   1832     1  0.0000000  1.2552000  3
   1828   1827   1831   1833     1  0.0000000  1.2552000  3
   1828   1827   1834   1835     1  0.0000000  1.2552000  3
   1828   1827   1834   1836     1  0.0000000  1.2552000  3
   1828   1840   1852   1853     1  0.0000000  0.6508444  3
   1828   1840   1852   1854     1  0.0000000  0.6508444  3
   1829   1828   1827   1831     1  0.0000000  1.2552000  3
   1829   1828   1827   1834     1  0.0000000  1.2552000  3
   1829   1828   1840   1852     1  0.0000000  0.6508444  3
   1829   1828   1840   1841     1  0.0000000  0.6508444  3
   1829   1828   1840   1842     1  0.0000000  0.6508444  3
   1830   1828   1827   1831     1  0.0000000  1.2552000  3
   1830   1828   1827   1834     1  0.0000000  1.2552000  3
   1830   1828   1840   1852     1  0.0000000  0.6508444  3
   1830   1828   1840   1841     1  0.0000000  0.6508444  3
   1830   1828   1840   1842     1  0.0000000  0.6508444  3
   1831   1827   1834   1835     1  0.0000000  1.2552000  3
   1831   1827   1834   1836     1  0.0000000  1.2552000  3
   1831   1843   1849   1850     1  0.0000000  0.6508444  3
   1831   1843   1849   1851     1  0.0000000  0.6508444  3
   1832   1831   1827   1834     1  0.0000000  1.2552000  3
   1832   1831   1843   1849     1  0.0000000  0.6508444  3
   1832   1831   1843   1844     1  0.0000000  0.6508444  3
   1832   1831   1843   1845     1  0.0000000  0.6508444  3
   1833   1831   1827   1834     1  0.0000000  1.2552000  3
   1833   1831   1843   1849     1  0.0000000  0.6508444  3
   1833   1831   1843   1844     1  0.0000000  0.6508444  3
   1833   1831   1843   1845     1  0.0000000  0.6508444  3
   1834   1837   1846   1847     1  0.0000000  0.6508444  3
   1834   1837   1846   1848     1  0.0000000  0.6508444  3
   1835   1834   1837   1846     1  0.0000000  0.6508444  3
   1835   1834   1837   1838     1  0.0000000  0.6508444  3
   1835   1834   1837   1839     1  0.0000000  0.6508444  3
   1836   1834   1837   1846     1  0.0000000  0.6508444  3
   1836   1834   1837   1838     1  0.0000000  0.6508444  3
   1836   1834   1837   1839     1  0.0000000  0.6508444  3
   1838   1837   1846   1855     1  0.0000000  1.0460000  1
   1838   1837   1846   1855     1  0.0000000  0.0000000  3
   1838   1837   1846   1847     1  0.0000000  0.6508444  3
   1838   1837   1846   1848     1  0.0000000  0.6508444  3
   1839   1837   1846   1855     1  0.0000000  1.0460000  1
   1839   1837   1846   1855     1  0.0000000  0.0000000  3
   1839   1837   1846   1847     1  0.0000000  0.6508444  3
   1839   1837   1846   1848     1  0.0000000  0.6508444  3
   1841   1840   1852   3841     1  0.0000000  1.0460000  1
   1841   1840   1852   3841     1  0.0000000  0.0000000  3
   1841   1840   1852   1853     1  0.0000000  0.6508444  3
   1841   1840   1852   1854     1  0.0000000  0.6508444  3
   1842   1840   1852   3841     1  0.0000000  1.0460000  1
   1842   1840   1852   3841     1  0.0000000  0.0000000  3
   1842   1840   1852   1853     1  0.0000000  0.6508444  3
   1842   1840   1852   1854     1  0.0000000  0.6508444  3
   1844   1843   1849   3810     1  0.0000000  1.0460000  1
   1844   1843   1849   3810     1  0.0000000  0.0000000  3
   1844   1843   1849   1850     1  0.0000000  0.6508444  3
   1844   1843   1849   1851     1  0.0000000  0.6508444  3
   1845   1843   1849   3810     1  0.0000000  1.0460000  1
   1845   1843   1849   3810     1  0.0000000  0.0000000  3
   1845   1843   1849   1850     1  0.0000000  0.6508444  3
   1845   1843   1849   1851     1  0.0000000  0.6508444  3
   1849   3810   3780   3781     1  0.0000000  1.6038667  3
   1849   3810   3780   3782     1  0.0000000  1.6038667  3
   1850   1849   3810   3780     1  0.0000000  1.6038667  3
   1851   1849   3810   3780     1  0.0000000  1.6038667  3
   1852   3841   3811   3812     1  0.0000000  1.6038667  3
   1852   3841   3811   3813     1  0.0000000  1.6038667  3
   1853   1852   3841   3811     1  0.0000000  1.6038667  3
   1854   1852   3841   3811     1  0.0000000  1.6038667  3
   1856   1857   1869   1870     1  0.0000000  0.6508444  3
   1856   1857   1869   1871     1  0.0000000  0.6508444  3
   1856   1860   1872   1873     1  0.0000000  0.6508444  3
   1856   1860   1872   1874     1  0.0000000  0.6508444  3
   1856   1863   1866   1867     1  0.0000000  0.6508444  3
   1856   1863   1866   1868     1  0.0000000  0.6508444  3
   1857   1856   1860   1861     1  0.0000000  1.2552000  3
   1857   1856   1860   1862     1  0.0000000  1.2552000  3
   1857   1856   1863   1864     1  0.0000000  1.2552000  3
   1857   1856   1863   1865     1  0.0000000  1.2552000  3
   1857   1869   1881   1882     1  0.0000000  0.6508444  3
   1857   1869   1881   1883     1  0.0000000  0.6508444  3
   1858   1857   1856   1860     1  0.0000000  1.2552000  3
   1858   1857   1856   1863     1  0.0000000  1.2552000  3
   1858   1857   1869   1881     1  0.0000000  0.6508444  3
   1858   1857   1869   1870     1  0.0000000  0.6508444  3
   1858   1857   1869   1871     1  0.0000000  0.6508444  3
   1859   1857   1856   1860     1  0.0000000  1.2552000  3
   1859   1857   1856   1863     1  0.0000000  1.2552000  3
   1859   1857   1869   1881     1  0.0000000  0.6508444  3
   1859   1857   1869   1870     1  0.0000000  0.6508444  3
   1859   1857   1869   1871     1  0.0000000  0.6508444  3
   1860   1856   1863   1864     1  0.0000000  1.2552000  3
   1860   1856   1863   1865     1  0.0000000  1.2552000  3
   1860   1872   1878   1879     1  0.0000000  0.6508444  3
   1860   1872   1878   1880     1  0.0000000  0.6508444  3
   1861   1860   1856   1863     1  0.0000000  1.2552000  3
   1861   1860   1872   1878     1  0.0000000  0.6508444  3
   1861   1860   1872   1873     1  0.0000000  0.6508444  3
   1861   1860   1872   1874     1  0.0000000  0.6508444  3
   1862   1860   1856   1863     1  0.0000000  1.2552000  3
   1862   1860   1872   1878     1  0.0000000  0.6508444  3
   1862   1860   1872   1873     1  0.0000000  0.6508444  3
   1862   1860   1872   1874     1  0.0000000  0.6508444  3
   1863   1866   1875   1876     1  0.0000000  0.6508444  3
   1863   1866   1875   1877     1  0.0000000  0.6508444  3
   1864   1863   1866   1875     1  0.0000000  0.6508444  3
   1864   1863   1866   1867     1  0.0000000  0.6508444  3
   1864   1863   1866   1868     1  0.0000000  0.6508444  3
   1865   1863   1866   1875     1  0.0000000  0.6508444  3
   1865   1863   1866   1867     1  0.0000000  0.6508444  3
   1865   1863   1866   1868     1  0.0000000  0.6508444  3
   1867   1866   1875   1884     1  0.0000000  1.0460000  1
   1867   1866   1875   1884     1  0.0000000  0.0000000  3
   1867   1866   1875   1876     1  0.0000000  0.6508444  3
   1867   1866   1875   1877     1  0.0000000  0.6508444  3
   1868   1866   1875   1884     1  0.0000000  1.0460000  1
   1868   1866   1875   1884     1  0.0000000  0.0000000  3
   1868   1866   1875   1876     1  0.0000000  0.6508444  3
   1868   1866   1875   1877     1  0.0000000  0.6508444  3
   1870   1869   1881   3903     1  0.0000000  1.0460000  1
   1870   1869   1881   3903     1  0.0000000  0.0000000  3
   1870   1869   1881   1882     1  0.0000000  0.6508444  3
   1870   1869   1881   1883     1  0.0000000  0.6508444  3
   1871   1869   1881   3903     1  0.0000000  1.0460000  1
   1871   1869   1881   3903     1  0.0000000  0.0000000  3
   1871   1869   1881   1882     1  0.0000000  0.6508444  3
   1871   1869   1881   1883     1  0.0000000  0.6508444  3
   1873   1872   1878   3872     1  0.0000000  1.0460000  1
   1873   1872   1878   3872     1  0.0000000  0.0000000  3
   1873   1872   1878   1879     1  0.0000000  0.6508444  3
   1873   1872   1878   1880     1  0.0000000  0.6508444  3
   1874   1872   1878   3872     1  0.0000000  1.0460000  1
   1874   1872   1878   3872     1  0.0000000  0.0000000  3
   1874   1872   1878   1879     1  0.0000000  0.6508444  3
   1874   1872   1878   1880     1  0.0000000  0.6508444  3
   1878   3872   3842   3843     1  0.0000000  1.6038667  3
   1878   3872   3842   3844     1  0.0000000  1.6038667  3
   1879   1878   3872   3842     1  0.0000000  1.6038667  3
   1880   1878   3872   3842     1  0.0000000  1.6038667  3
   1881   3903   3873   3874     1  0.0000000  1.6038667  3
   1881   3903   3873   3875     1  0.0000000  1.6038667  3
   1882   1881   3903   3873     1  0.0000000  1.6038667  3
   1883   1881   3903   3873     1  0.0000000  1.6038667  3
   1885   1886   1898   1899     1  0.0000000  0.6508444  3
   1885   1886   1898   1900     1  0.0000000  0.6508444  3
   1885   1889   1901   1902     1  0.0000000  0.6508444  3
   1885   1889   1901   1903     1  0.0000000  0.6508444  3
   1885   1892   1895   1896     1  0.0000000  0.6508444  3
   1885   1892   1895   1897     1  0.0000000  0.6508444  3
   1886   1885   1889   1890     1  0.0000000  1.2552000  3
   1886   1885   1889   1891     1  0.0000000  1.2552000  3
   1886   1885   1892   1893     1  0.0000000  1.2552000  3
   1886   1885   1892   1894     1  0.0000000  1.2552000  3
   1886   1898   1910   1911     1  0.0000000  0.6508444  3
   1886   1898   1910   1912     1  0.0000000  0.6508444  3
   1887   1886   1885   1889     1  0.0000000  1.2552000  3
   1887   1886   1885   1892     1  0.0000000  1.2552000  3
   1887   1886   1898   1910     1  0.0000000  0.6508444  3
   1887   1886   1898   1899     1  0.0000000  0.6508444  3
   1887   1886   1898   1900     1  0.0000000  0.6508444  3
   1888   1886   1885   1889     1  0.0000000  1.2552000  3
   1888   1886   1885   1892     1  0.0000000  1.2552000  3
   1888   1886   1898   1910     1  0.0000000  0.6508444  3
   1888   1886   1898   1899     1  0.0000000  0.6508444  3
   1888   1886   1898   1900     1  0.0000000  0.6508444  3
   1889   1885   1892   1893     1  0.0000000  1.2552000  3
   1889   1885   1892   1894     1  0.0000000  1.2552000  3
   1889   1901   1907   1908     1  0.0000000  0.6508444  3
   1889   1901   1907   1909     1  0.0000000  0.6508444  3
   1890   1889   1885   1892     1  0.0000000  1.2552000  3
   1890   1889   1901   1907     1  0.0000000  0.6508444  3
   1890   1889   1901   1902     1  0.0000000  0.6508444  3
   1890   1889   1901   1903     1  0.0000000  0.6508444  3
   1891   1889   1885   1892     1  0.0000000  1.2552000  3
   1891   1889   1901   1907     1  0.0000000  0.6508444  3
   1891   1889   1901   1902     1  0.0000000  0.6508444  3
   1891   1889   1901   1903     1  0.0000000  0.6508444  3
   1892   1895   1904   1905     1  0.0000000  0.6508444  3
   1892   1895   1904   1906     1  0.0000000  0.6508444  3
   1893   1892   1895   1904     1  0.0000000  0.6508444  3
   1893   1892   1895   1896     1  0.0000000  0.6508444  3
   1893   1892   1895   1897     1  0.0000000  0.6508444  3
   1894   1892   1895   1904     1  0.0000000  0.6508444  3
   1894   1892   1895   1896     1  0.0000000  0.6508444  3
   1894   1892   1895   1897     1  0.0000000  0.6508444  3
   1896   1895   1904   1913     1  0.0000000  1.0460000  1
   1896   1895   1904   1913     1  0.0000000  0.0000000  3
   1896   1895   1904   1905     1  0.0000000  0.6508444  3
   1896   1895   1904   1906     1  0.0000000  0.6508444  3
   1897   1895   1904   1913     1  0.0000000  1.0460000  1
   1897   1895   1904   1913     1  0.0000000  0.0000000  3
   1897   1895   1904   1905     1  0.0000000  0.6508444  3
   1897   1895   1904   1906     1  0.0000000  0.6508444  3
   1899   1898   1910   3965     1  0.0000000  1.0460000  1
   1899   1898   1910   3965     1  0.0000000  0.0000000  3
   1899   1898   1910   1911     1  0.0000000  0.6508444  3
   1899   1898   1910   1912     1  0.0000000  0.6508444  3
   1900   1898   1910   3965     1  0.0000000  1.0460000  1
   1900   1898   1910   3965     1  0.0000000  0.0000000  3
   1900   1898   1910   1911     1  0.0000000  0.6508444  3
   1900   1898   1910   1912     1  0.0000000  0.6508444  3
   1902   1901   1907   3934     1  0.0000000  1.0460000  1
   1902   1901   1907   3934     1  0.0000000  0.0000000  3
   1902   1901   1907   1908     1  0.0000000  0.6508444  3
   1902   1901   1907   1909     1  0.0000000  0.6508444  3
   1903   1901   1907   3934     1  0.0000000  1.0460000  1
   1903   1901   1907   3934     1  0.0000000  0.0000000  3
   1903   1901   1907   1908     1  0.0000000  0.6508444  3
   1903   1901   1907   1909     1  0.0000000  0.6508444  3
   1907   3934   3904   3905     1  0.0000000  1.6038667  3
   1907   3934   3904   3906     1  0.0000000  1.6038667  3
   1908   1907   3934   3904     1  0.0000000  1.6038667  3
   1909   1907   3934   3904     1  0.0000000  1.6038667  3
   1910   3965   3935   3936     1  0.0000000  1.6038667  3
   1910   3965   3935   3937     1  0.0000000  1.6038667  3
   1911   1910   3965   3935     1  0.0000000  1.6038667  3
   1912   1910   3965   3935     1  0.0000000  1.6038667  3
   1914   1915   1927   1928     1  0.0000000  0.6508444  3
   1914   1915   1927   1929     1  0.0000000  0.6508444  3
   1914   1918   1930   1931     1  0.0000000  0.6508444  3
   1914   1918   1930   1932     1  0.0000000  0.6508444  3
   1914   1921   1924   1925     1  0.0000000  0.6508444  3
   1914   1921   1924   1926     1  0.0000000  0.6508444  3
   1915   1914   1918   1919     1  0.0000000  1.2552000  3
   1915   1914   1918   1920     1  0.0000000  1.2552000  3
   1915   1914   1921   1922     1  0.0000000  1.2552000  3
   1915   1914   1921   1923     1  0.0000000  1.2552000  3
   1915   1927   1939   1940     1  0.0000000  0.6508444  3
   1915   1927   1939   1941     1  0.0000000  0.6508444  3
   1916   1915   1914   1918     1  0.0000000  1.2552000  3
   1916   1915   1914   1921     1  0.0000000  1.2552000  3
   1916   1915   1927   1939     1  0.0000000  0.6508444  3
   1916   1915   1927   1928     1  0.0000000  0.6508444  3
   1916   1915   1927   1929     1  0.0000000  0.6508444  3
   1917   1915   1914   1918     1  0.0000000  1.2552000  3
   1917   1915   1914   1921     1  0.0000000  1.2552000  3
   1917   1915   1927   1939     1  0.0000000  0.6508444  3
   1917   1915   1927   1928     1  0.0000000  0.6508444  3
   1917   1915   1927   1929     1  0.0000000  0.6508444  3
   1918   1914   1921   1922     1  0.0000000  1.2552000  3
   1918   1914   1921   1923     1  0.0000000  1.2552000  3
   1918   1930   1936   1937     1  0.0000000  0.6508444  3
   1918   1930   1936   1938     1  0.0000000  0.6508444  3
   1919   1918   1914   1921     1  0.0000000  1.2552000  3
   1919   1918   1930   1936     1  0.0000000  0.6508444  3
   1919   1918   1930   1931     1  0.0000000  0.6508444  3
   1919   1918   1930   1932     1  0.0000000  0.6508444  3
   1920   1918   1914   1921     1  0.0000000  1.2552000  3
   1920   1918   1930   1936     1  0.0000000  0.6508444  3
   1920   1918   1930   1931     1  0.0000000  0.6508444  3
   1920   1918   1930   1932     1  0.0000000  0.6508444  3
   1921   1924   1933   1934     1  0.0000000  0.6508444  3
   1921   1924   1933   1935     1  0.0000000  0.6508444  3
   1922   1921   1924   1933     1  0.0000000  0.6508444  3
   1922   1921   1924   1925     1  0.0000000  0.6508444  3
   1922   1921   1924   1926     1  0.0000000  0.6508444  3
   1923   1921   1924   1933     1  0.0000000  0.6508444  3
   1923   1921   1924   1925     1  0.0000000  0.6508444  3
   1923   1921   1924   1926     1  0.0000000  0.6508444  3
   1925   1924   1933   1942     1  0.0000000  1.0460000  1
   1925   1924   1933   1942     1  0.0000000  0.0000000  3
   1925   1924   1933   1934     1  0.0000000  0.6508444  3
   1925   1924   1933   1935     1  0.0000000  0.6508444  3
   1926   1924   1933   1942     1  0.0000000  1.0460000  1
   1926   1924   1933   1942     1  0.0000000  0.0000000  3
   1926   1924   1933   1934     1  0.0000000  0.6508444  3
   1926   1924   1933   1935     1  0.0000000  0.6508444  3
   1928   1927   1939   4027     1  0.0000000  1.0460000  1
   1928   1927   1939   4027     1  0.0000000  0.0000000  3
   1928   1927   1939   1940     1  0.0000000  0.6508444  3
   1928   1927   1939   1941     1  0.0000000  0.6508444  3
   1929   1927   1939   4027     1  0.0000000  1.0460000  1
   1929   1927   1939   4027     1  0.0000000  0.0000000  3
   1929   1927   1939   1940     1  0.0000000  0.6508444  3
   1929   1927   1939   1941     1  0.0000000  0.6508444  3
   1931   1930   1936   3996     1  0.0000000  1.0460000  1
   1931   1930   1936   3996     1  0.0000000  0.0000000  3
   1931   1930   1936   1937     1  0.0000000  0.6508444  3
   1931   1930   1936   1938     1  0.0000000  0.6508444  3
   1932   1930   1936   3996     1  0.0000000  1.0460000  1
   1932   1930   1936   3996     1  0.0000000  0.0000000  3
   1932   1930   1936   1937     1  0.0000000  0.6508444  3
   1932   1930   1936   1938     1  0.0000000  0.6508444  3
   1936   3996   3966   3967     1  0.0000000  1.6038667  3
   1936   3996   3966   3968     1  0.0000000  1.6038667  3
   1937   1936   3996   3966     1  0.0000000  1.6038667  3
   1938   1936   3996   3966     1  0.0000000  1.6038667  3
   1939   4027   3997   3998     1  0.0000000  1.6038667  3
   1939   4027   3997   3999     1  0.0000000  1.6038667  3
   1940   1939   4027   3997     1  0.0000000  1.6038667  3
   1941   1939   4027   3997     1  0.0000000  1.6038667  3
   1943   1944   1956   1957     1  0.0000000  0.6508444  3
   1943   1944   1956   1958     1  0.0000000  0.6508444  3
   1943   1947   1959   1960     1  0.0000000  0.6508444  3
   1943   1947   1959   1961     1  0.0000000  0.6508444  3
   1943   1950   1953   1954     1  0.0000000  0.6508444  3
   1943   1950   1953   1955     1  0.0000000  0.6508444  3
   1944   1943   1947   1948     1  0.0000000  1.2552000  3
   1944   1943   1947   1949     1  0.0000000  1.2552000  3
   1944   1943   1950   1951     1  0.0000000  1.2552000  3
   1944   1943   1950   1952     1  0.0000000  1.2552000  3
   1944   1956   1968   1969     1  0.0000000  0.6508444  3
   1944   1956   1968   1970     1  0.0000000  0.6508444  3
   1945   1944   1943   1947     1  0.0000000  1.2552000  3
   1945   1944   1943   1950     1  0.0000000  1.2552000  3
   1945   1944   1956   1968     1  0.0000000  0.6508444  3
   1945   1944   1956   1957     1  0.0000000  0.6508444  3
   1945   1944   1956   1958     1  0.0000000  0.6508444  3
   1946   1944   1943   1947     1  0.0000000  1.2552000  3
   1946   1944   1943   1950     1  0.0000000  1.2552000  3
   1946   1944   1956   1968     1  0.0000000  0.6508444  3
   1946   1944   1956   1957     1  0.0000000  0.6508444  3
   1946   1944   1956   1958     1  0.0000000  0.6508444  3
   1947   1943   1950   1951     1  0.0000000  1.2552000  3
   1947   1943   1950   1952     1  0.0000000  1.2552000  3
   1947   1959   1965   1966     1  0.0000000  0.6508444  3
   1947   1959   1965   1967     1  0.0000000  0.6508444  3
   1948   1947   1943   1950     1  0.0000000  1.2552000  3
   1948   1947   1959   1965     1  0.0000000  0.6508444  3
   1948   1947   1959   1960     1  0.0000000  0.6508444  3
   1948   1947   1959   1961     1  0.0000000  0.6508444  3
   1949   1947   1943   1950     1  0.0000000  1.2552000  3
   1949   1947   1959   1965     1  0.0000000  0.6508444  3
   1949   1947   1959   1960     1  0.0000000  0.6508444  3
   1949   1947   1959   1961     1  0.0000000  0.6508444  3
   1950   1953   1962   1963     1  0.0000000  0.6508444  3
   1950   1953   1962   1964     1  0.0000000  0.6508444  3
   1951   1950   1953   1962     1  0.0000000  0.6508444  3
   1951   1950   1953   1954     1  0.0000000  0.6508444  3
   1951   1950   1953   1955     1  0.0000000  0.6508444  3
   1952   1950   1953   1962     1  0.0000000  0.6508444  3
   1952   1950   1953   1954     1  0.0000000  0.6508444  3
   1952   1950   1953   1955     1  0.0000000  0.6508444  3
   1954   1953   1962   1971     1  0.0000000  1.0460000  1
   1954   1953   1962   1971     1  0.0000000  0.0000000  3
   1954   1953   1962   1963     1  0.0000000  0.6508444  3
   1954   1953   1962   1964     1  0.0000000  0.6508444  3
   1955   1953   1962   1971     1  0.0000000  1.0460000  1
   1955   1953   1962   1971     1  0.0000000  0.0000000  3
   1955   1953   1962   1963     1  0.0000000  0.6508444  3
   1955   1953   1962   1964     1  0.0000000  0.6508444  3
   1957   1956   1968   4089     1  0.0000000  1.0460000  1
   1957   1956   1968   4089     1  0.0000000  0.0000000  3
   1957   1956   1968   1969     1  0.0000000  0.6508444  3
   1957   1956   1968   1970     1  0.0000000  0.6508444  3
   1958   1956   1968   4089     1  0.0000000  1.0460000  1
   1958   1956   1968   4089     1  0.0000000  0.0000000  3
   1958   1956   1968   1969     1  0.0000000  0.6508444  3
   1958   1956   1968   1970     1  0.0000000  0.6508444  3
   1960   1959   1965   4058     1  0.0000000  1.0460000  1
   1960   1959   1965   4058     1  0.0000000  0.0000000  3
   1960   1959   1965   1966     1  0.0000000  0.6508444  3
   1960   1959   1965   1967     1  0.0000000  0.6508444  3
   1961   1959   1965   4058     1  0.0000000  1.0460000  1
   1961   1959   1965   4058     1  0.0000000  0.0000000  3
   1961   1959   1965   1966     1  0.0000000  0.6508444  3
   1961   1959   1965   1967     1  0.0000000  0.6508444  3
   1965   4058   4028   4029     1  0.0000000  1.6038667  3
   1965   4058   4028   4030     1  0.0000000  1.6038667  3
   1966   1965   4058   4028     1  0.0000000  1.6038667  3
   1967   1965   4058   4028     1  0.0000000  1.6038667  3
   1968   4089   4059   4060     1  0.0000000  1.6038667  3
   1968   4089   4059   4061     1  0.0000000  1.6038667  3
   1969   1968   4089   4059     1  0.0000000  1.6038667  3
   1970   1968   4089   4059     1  0.0000000  1.6038667  3
   1972   1973   1985   1986     1  0.0000000  0.6508444  3
   1972   1973   1985   1987     1  0.0000000  0.6508444  3
   1972   1976   1988   1989     1  0.0000000  0.6508444  3
   1972   1976   1988   1990     1  0.0000000  0.6508444  3
   1972   1979   1982   1983     1  0.0000000  0.6508444  3
   1972   1979   1982   1984     1  0.0000000  0.6508444  3
   1973   1972   1976   1977     1  0.0000000  1.2552000  3
   1973   1972   1976   1978     1  0.0000000  1.2552000  3
   1973   1972   1979   1980     1  0.0000000  1.2552000  3
   1973   1972   1979   1981     1  0.0000000  1.2552000  3
   1973   1985   1997   1998     1  0.0000000  0.6508444  3
   1973   1985   1997   1999     1  0.0000000  0.6508444  3
   1974   1973   1972   1976     1  0.0000000  1.2552000  3
   1974   1973   1972   1979     1  0.0000000  1.2552000  3
   1974   1973   1985   1997     1  0.0000000  0.6508444  3
   1974   1973   1985   1986     1  0.0000000  0.6508444  3
   1974   1973   1985   1987     1  0.0000000  0.6508444  3
   1975   1973   1972   1976     1  0.0000000  1.2552000  3
   1975   1973   1972   1979     1  0.0000000  1.2552000  3
   1975   1973   1985   1997     1  0.0000000  0.6508444  3
   1975   1973   1985   1986     1  0.0000000  0.6508444  3
   1975   1973   1985   1987     1  0.0000000  0.6508444  3
   1976   1972   1979   1980     1  0.0000000  1.2552000  3
   1976   1972   1979   1981     1  0.0000000  1.2552000  3
   1976   1988   1994   1995     1  0.0000000  0.6508444  3
   1976   1988   1994   1996     1  0.0000000  0.6508444  3
   1977   1976   1972   1979     1  0.0000000  1.2552000  3
   1977   1976   1988   1994     1  0.0000000  0.6508444  3
   1977   1976   1988   1989     1  0.0000000  0.6508444  3
   1977   1976   1988   1990     1  0.0000000  0.6508444  3
   1978   1976   1972   1979     1  0.0000000  1.2552000  3
   1978   1976   1988   1994     1  0.0000000  0.6508444  3
   1978   1976   1988   1989     1  0.0000000  0.6508444  3
   1978   1976   1988   1990     1  0.0000000  0.6508444  3
   1979   1982   1991   1992     1  0.0000000  0.6508444  3
   1979   1982   1991   1993     1  0.0000000  0.6508444  3
   1980   1979   1982   1991     1  0.0000000  0.6508444  3
   1980   1979   1982   1983     1  0.0000000  0.6508444  3
   1980   1979   1982   1984     1  0.0000000  0.6508444  3
   1981   1979   1982   1991     1  0.0000000  0.6508444  3
   1981   1979   1982   1983     1  0.0000000  0.6508444  3
   1981   1979   1982   1984     1  0.0000000  0.6508444  3
   1983   1982   1991   2000     1  0.0000000  1.0460000  1
   1983   1982   1991   2000     1  0.0000000  0.0000000  3
   1983   1982   1991   1992     1  0.0000000  0.6508444  3
   1983   1982   1991   1993     1  0.0000000  0.6508444  3
   1984   1982   1991   2000     1  0.0000000  1.0460000  1
   1984   1982   1991   2000     1  0.0000000  0.0000000  3
   1984   1982   1991   1992     1  0.0000000  0.6508444  3
   1984   1982   1991   1993     1  0.0000000  0.6508444  3
   1986   1985   1997   4151     1  0.0000000  1.0460000  1
   1986   1985   1997   4151     1  0.0000000  0.0000000  3
   1986   1985   1997   1998     1  0.0000000  0.6508444  3
   1986   1985   1997   1999     1  0.0000000  0.6508444  3
   1987   1985   1997   4151     1  0.0000000  1.0460000  1
   1987   1985   1997   4151     1  0.0000000  0.0000000  3
   1987   1985   1997   1998     1  0.0000000  0.6508444  3
   1987   1985   1997   1999     1  0.0000000  0.6508444  3
   1989   1988   1994   4120     1  0.0000000  1.0460000  1
   1989   1988   1994   4120     1  0.0000000  0.0000000  3
   1989   1988   1994   1995     1  0.0000000  0.6508444  3
   1989   1988   1994   1996     1  0.0000000  0.6508444  3
   1990   1988   1994   4120     1  0.0000000  1.0460000  1
   1990   1988   1994   4120     1  0.0000000  0.0000000  3
   1990   1988   1994   1995     1  0.0000000  0.6508444  3
   1990   1988   1994   1996     1  0.0000000  0.6508444  3
   1994   4120   4090   4091     1  0.0000000  1.6038667  3
   1994   4120   4090   4092     1  0.0000000  1.6038667  3
   1995   1994   4120   4090     1  0.0000000  1.6038667  3
   1996   1994   4120   4090     1  0.0000000  1.6038667  3
   1997   4151   4121   4122     1  0.0000000  1.6038667  3
   1997   4151   4121   4123     1  0.0000000  1.6038667  3
   1998   1997   4151   4121     1  0.0000000  1.6038667  3
   1999   1997   4151   4121     1  0.0000000  1.6038667  3
   2001   2002   2014   2015     1  0.0000000  0.6508444  3
   2001   2002   2014   2016     1  0.0000000  0.6508444  3
   2001   2005   2017   2018     1  0.0000000  0.6508444  3
   2001   2005   2017   2019     1  0.0000000  0.6508444  3
   2001   2008   2011   2012     1  0.0000000  0.6508444  3
   2001   2008   2011   2013     1  0.0000000  0.6508444  3
   2002   2001   2005   2006     1  0.0000000  1.2552000  3
   2002   2001   2005   2007     1  0.0000000  1.2552000  3
   2002   2001   2008   2009     1  0.0000000  1.2552000  3
   2002   2001   2008   2010     1  0.0000000  1.2552000  3
   2002   2014   2026   2027     1  0.0000000  0.6508444  3
   2002   2014   2026   2028     1  0.0000000  0.6508444  3
   2003   2002   2001   2005     1  0.0000000  1.2552000  3
   2003   2002   2001   2008     1  0.0000000  1.2552000  3
   2003   2002   2014   2026     1  0.0000000  0.6508444  3
   2003   2002   2014   2015     1  0.0000000  0.6508444  3
   2003   2002   2014   2016     1  0.0000000  0.6508444  3
   2004   2002   2001   2005     1  0.0000000  1.2552000  3
   2004   2002   2001   2008     1  0.0000000  1.2552000  3
   2004   2002   2014   2026     1  0.0000000  0.6508444  3
   2004   2002   2014   2015     1  0.0000000  0.6508444  3
   2004   2002   2014   2016     1  0.0000000  0.6508444  3
   2005   2001   2008   2009     1  0.0000000  1.2552000  3
   2005   2001   2008   2010     1  0.0000000  1.2552000  3
   2005   2017   2023   2024     1  0.0000000  0.6508444  3
   2005   2017   2023   2025     1  0.0000000  0.6508444  3
   2006   2005   2001   2008     1  0.0000000  1.2552000  3
   2006   2005   2017   2023     1  0.0000000  0.6508444  3
   2006   2005   2017   2018     1  0.0000000  0.6508444  3
   2006   2005   2017   2019     1  0.0000000  0.6508444  3
   2007   2005   2001   2008     1  0.0000000  1.2552000  3
   2007   2005   2017   2023     1  0.0000000  0.6508444  3
   2007   2005   2017   2018     1  0.0000000  0.6508444  3
   2007   2005   2017   2019     1  0.0000000  0.6508444  3
   2008   2011   2020   2021     1  0.0000000  0.6508444  3
   2008   2011   2020   2022     1  0.0000000  0.6508444  3
   2009   2008   2011   2020     1  0.0000000  0.6508444  3
   2009   2008   2011   2012     1  0.0000000  0.6508444  3
   2009   2008   2011   2013     1  0.0000000  0.6508444  3
   2010   2008   2011   2020     1  0.0000000  0.6508444  3
   2010   2008   2011   2012     1  0.0000000  0.6508444  3
   2010   2008   2011   2013     1  0.0000000  0.6508444  3
   2012   2011   2020   2029     1  0.0000000  1.0460000  1
   2012   2011   2020   2029     1  0.0000000  0.0000000  3
   2012   2011   2020   2021     1  0.0000000  0.6508444  3
   2012   2011   2020   2022     1  0.0000000  0.6508444  3
   2013   2011   2020   2029     1  0.0000000  1.0460000  1
   2013   2011   2020   2029     1  0.0000000  0.0000000  3
   2013   2011   2020   2021     1  0.0000000  0.6508444  3
   2013   2011   2020   2022     1  0.0000000  0.6508444  3
   2015   2014   2026   4213     1  0.0000000  1.0460000  1
   2015   2014   2026   4213     1  0.0000000  0.0000000  3
   2015   2014   2026   2027     1  0.0000000  0.6508444  3
   2015   2014   2026   2028     1  0.0000000  0.6508444  3
   2016   2014   2026   4213     1  0.0000000  1.0460000  1
   2016   2014   2026   4213     1  0.0000000  0.0000000  3
   2016   2014   2026   2027     1  0.0000000  0.6508444  3
   2016   2014   2026   2028     1  0.0000000  0.6508444  3
   2018   2017   2023   4182     1  0.0000000  1.0460000  1
   2018   2017   2023   4182     1  0.0000000  0.0000000  3
   2018   2017   2023   2024     1  0.0000000  0.6508444  3
   2018   2017   2023   2025     1  0.0000000  0.6508444  3
   2019   2017   2023   4182     1  0.0000000  1.0460000  1
   2019   2017   2023   4182     1  0.0000000  0.0000000  3
   2019   2017   2023   2024     1  0.0000000  0.6508444  3
   2019   2017   2023   2025     1  0.0000000  0.6508444  3
   2023   4182   4152   4153     1  0.0000000  1.6038667  3
   2023   4182   4152   4154     1  0.0000000  1.6038667  3
   2024   2023   4182   4152     1  0.0000000  1.6038667  3
   2025   2023   4182   4152     1  0.0000000  1.6038667  3
   2026   4213   4183   4184     1  0.0000000  1.6038667  3
   2026   4213   4183   4185     1  0.0000000  1.6038667  3
   2027   2026   4213   4183     1  0.0000000  1.6038667  3
   2028   2026   4213   4183     1  0.0000000  1.6038667  3
   2030   2031   2043   2044     1  0.0000000  0.6508444  3
   2030   2031   2043   2045     1  0.0000000  0.6508444  3
   2030   2034   2046   2047     1  0.0000000  0.6508444  3
   2030   2034   2046   2048     1  0.0000000  0.6508444  3
   2030   2037   2040   2041     1  0.0000000  0.6508444  3
   2030   2037   2040   2042     1  0.0000000  0.6508444  3
   2031   2030   2034   2035     1  0.0000000  1.2552000  3
   2031   2030   2034   2036     1  0.0000000  1.2552000  3
   2031   2030   2037   2038     1  0.0000000  1.2552000  3
   2031   2030   2037   2039     1  0.0000000  1.2552000  3
   2031   2043   2055   2056     1  0.0000000  0.6508444  3
   2031   2043   2055   2057     1  0.0000000  0.6508444  3
   2032   2031   2030   2034     1  0.0000000  1.2552000  3
   2032   2031   2030   2037     1  0.0000000  1.2552000  3
   2032   2031   2043   2055     1  0.0000000  0.6508444  3
   2032   2031   2043   2044     1  0.0000000  0.6508444  3
   2032   2031   2043   2045     1  0.0000000  0.6508444  3
   2033   2031   2030   2034     1  0.0000000  1.2552000  3
   2033   2031   2030   2037     1  0.0000000  1.2552000  3
   2033   2031   2043   2055     1  0.0000000  0.6508444  3
   2033   2031   2043   2044     1  0.0000000  0.6508444  3
   2033   2031   2043   2045     1  0.0000000  0.6508444  3
   2034   2030   2037   2038     1  0.0000000  1.2552000  3
   2034   2030   2037   2039     1  0.0000000  1.2552000  3
   2034   2046   2052   2053     1  0.0000000  0.6508444  3
   2034   2046   2052   2054     1  0.0000000  0.6508444  3
   2035   2034   2030   2037     1  0.0000000  1.2552000  3
   2035   2034   2046   2052     1  0.0000000  0.6508444  3
   2035   2034   2046   2047     1  0.0000000  0.6508444  3
   2035   2034   2046   2048     1  0.0000000  0.6508444  3
   2036   2034   2030   2037     1  0.0000000  1.2552000  3
   2036   2034   2046   2052     1  0.0000000  0.6508444  3
   2036   2034   2046   2047     1  0.0000000  0.6508444  3
   2036   2034   2046   2048     1  0.0000000  0.6508444  3
   2037   2040   2049   2050     1  0.0000000  0.6508444  3
   2037   2040   2049   2051     1  0.0000000  0.6508444  3
   2038   2037   2040   2049     1  0.0000000  0.6508444  3
   2038   2037   2040   2041     1  0.0000000  0.6508444  3
   2038   2037   2040   2042     1  0.0000000  0.6508444  3
   2039   2037   2040   2049     1  0.0000000  0.6508444  3
   2039   2037   2040   2041     1  0.0000000  0.6508444  3
   2039   2037   2040   2042     1  0.0000000  0.6508444  3
   2041   2040   2049   2058     1  0.0000000  1.0460000  1
   2041   2040   2049   2058     1  0.0000000  0.0000000  3
   2041   2040   2049   2050     1  0.0000000  0.6508444  3
   2041   2040   2049   2051     1  0.0000000  0.6508444  3
   2042   2040   2049   2058     1  0.0000000  1.0460000  1
   2042   2040   2049   2058     1  0.0000000  0.0000000  3
   2042   2040   2049   2050     1  0.0000000  0.6508444  3
   2042   2040   2049   2051     1  0.0000000  0.6508444  3
   2044   2043   2055   4275     1  0.0000000  1.0460000  1
   2044   2043   2055   4275     1  0.0000000  0.0000000  3
   2044   2043   2055   2056     1  0.0000000  0.6508444  3
   2044   2043   2055   2057     1  0.0000000  0.6508444  3
   2045   2043   2055   4275     1  0.0000000  1.0460000  1
   2045   2043   2055   4275     1  0.0000000  0.0000000  3
   2045   2043   2055   2056     1  0.0000000  0.6508444  3
   2045   2043   2055   2057     1  0.0000000  0.6508444  3
   2047   2046   2052   4244     1  0.0000000  1.0460000  1
   2047   2046   2052   4244     1  0.0000000  0.0000000  3
   2047   2046   2052   2053     1  0.0000000  0.6508444  3
   2047   2046   2052   2054     1  0.0000000  0.6508444  3
   2048   2046   2052   4244     1  0.0000000  1.0460000  1
   2048   2046   2052   4244     1  0.0000000  0.0000000  3
   2048   2046   2052   2053     1  0.0000000  0.6508444  3
   2048   2046   2052   2054     1  0.0000000  0.6508444  3
   2052   4244   4214   4215     1  0.0000000  1.6038667  3
   2052   4244   4214   4216     1  0.0000000  1.6038667  3
   2053   2052   4244   4214     1  0.0000000  1.6038667  3
   2054   2052   4244   4214     1  0.0000000  1.6038667  3
   2055   4275   4245   4246     1  0.0000000  1.6038667  3
   2055   4275   4245   4247     1  0.0000000  1.6038667  3
   2056   2055   4275   4245     1  0.0000000  1.6038667  3
   2057   2055   4275   4245     1  0.0000000  1.6038667  3
   2059   2060   2072   2073     1  0.0000000  0.6508444  3
   2059   2060   2072   2074     1  0.0000000  0.6508444  3
   2059   2063   2075   2076     1  0.0000000  0.6508444  3
   2059   2063   2075   2077     1  0.0000000  0.6508444  3
   2059   2066   2069   2070     1  0.0000000  0.6508444  3
   2059   2066   2069   2071     1  0.0000000  0.6508444  3
   2060   2059   2063   2064     1  0.0000000  1.2552000  3
   2060   2059   2063   2065     1  0.0000000  1.2552000  3
   2060   2059   2066   2067     1  0.0000000  1.2552000  3
   2060   2059   2066   2068     1  0.0000000  1.2552000  3
   2060   2072   2084   2085     1  0.0000000  0.6508444  3
   2060   2072   2084   2086     1  0.0000000  0.6508444  3
   2061   2060   2059   2063     1  0.0000000  1.2552000  3
   2061   2060   2059   2066     1  0.0000000  1.2552000  3
   2061   2060   2072   2084     1  0.0000000  0.6508444  3
   2061   2060   2072   2073     1  0.0000000  0.6508444  3
   2061   2060   2072   2074     1  0.0000000  0.6508444  3
   2062   2060   2059   2063     1  0.0000000  1.2552000  3
   2062   2060   2059   2066     1  0.0000000  1.2552000  3
   2062   2060   2072   2084     1  0.0000000  0.6508444  3
   2062   2060   2072   2073     1  0.0000000  0.6508444  3
   2062   2060   2072   2074     1  0.0000000  0.6508444  3
   2063   2059   2066   2067     1  0.0000000  1.2552000  3
   2063   2059   2066   2068     1  0.0000000  1.2552000  3
   2063   2075   2081   2082     1  0.0000000  0.6508444  3
   2063   2075   2081   2083     1  0.0000000  0.6508444  3
   2064   2063   2059   2066     1  0.0000000  1.2552000  3
   2064   2063   2075   2081     1  0.0000000  0.6508444  3
   2064   2063   2075   2076     1  0.0000000  0.6508444  3
   2064   2063   2075   2077     1  0.0000000  0.6508444  3
   2065   2063   2059   2066     1  0.0000000  1.2552000  3
   2065   2063   2075   2081     1  0.0000000  0.6508444  3
   2065   2063   2075   2076     1  0.0000000  0.6508444  3
   2065   2063   2075   2077     1  0.0000000  0.6508444  3
   2066   2069   2078   2079     1  0.0000000  0.6508444  3
   2066   2069   2078   2080     1  0.0000000  0.6508444  3
   2067   2066   2069   2078     1  0.0000000  0.6508444  3
   2067   2066   2069   2070     1  0.0000000  0.6508444  3
   2067   2066   2069   2071     1  0.0000000  0.6508444  3
   2068   2066   2069   2078     1  0.0000000  0.6508444  3
   2068   2066   2069   2070     1  0.0000000  0.6508444  3
   2068   2066   2069   2071     1  0.0000000  0.6508444  3
   2070   2069   2078   2087     1  0.0000000  1.0460000  1
   2070   2069   2078   2087     1  0.0000000  0.0000000  3
   2070   2069   2078   2079     1  0.0000000  0.6508444  3
   2070   2069   2078   2080     1  0.0000000  0.6508444  3
   2071   2069   2078   2087     1  0.0000000  1.0460000  1
   2071   2069   2078   2087     1  0.0000000  0.0000000  3
   2071   2069   2078   2079     1  0.0000000  0.6508444  3
   2071   2069   2078   2080     1  0.0000000  0.6508444  3
   2073   2072   2084   4337     1  0.0000000  1.0460000  1
   2073   2072   2084   4337     1  0.0000000  0.0000000  3
   2073   2072   2084   2085     1  0.0000000  0.6508444  3
   2073   2072   2084   2086     1  0.0000000  0.6508444  3
   2074   2072   2084   4337     1  0.0000000  1.0460000  1
   2074   2072   2084   4337     1  0.0000000  0.0000000  3
   2074   2072   2084   2085     1  0.0000000  0.6508444  3
   2074   2072   2084   2086     1  0.0000000  0.6508444  3
   2076   2075   2081   4306     1  0.0000000  1.0460000  1
   2076   2075   2081   4306     1  0.0000000  0.0000000  3
   2076   2075   2081   2082     1  0.0000000  0.6508444  3
   2076   2075   2081   2083     1  0.0000000  0.6508444  3
   2077   2075   2081   4306     1  0.0000000  1.0460000  1
   2077   2075   2081   4306     1  0.0000000  0.0000000  3
   2077   2075   2081   2082     1  0.0000000  0.6508444  3
   2077   2075   2081   2083     1  0.0000000  0.6508444  3
   2081   4306   4276   4277     1  0.0000000  1.6038667  3
   2081   4306   4276   4278     1  0.0000000  1.6038667  3
   2082   2081   4306   4276     1  0.0000000  1.6038667  3
   2083   2081   4306   4276     1  0.0000000  1.6038667  3
   2084   4337   4307   4308     1  0.0000000  1.6038667  3
   2084   4337   4307   4309     1  0.0000000  1.6038667  3
   2085   2084   4337   4307     1  0.0000000  1.6038667  3
   2086   2084   4337   4307     1  0.0000000  1.6038667  3
   2088   2089   2101   2102     1  0.0000000  0.6508444  3
   2088   2089   2101   2103     1  0.0000000  0.6508444  3
   2088   2092   2104   2105     1  0.0000000  0.6508444  3
   2088   2092   2104   2106     1  0.0000000  0.6508444  3
   2088   2095   2098   2099     1  0.0000000  0.6508444  3
   2088   2095   2098   2100     1  0.0000000  0.6508444  3
   2089   2088   2092   2093     1  0.0000000  1.2552000  3
   2089   2088   2092   2094     1  0.0000000  1.2552000  3
   2089   2088   2095   2096     1  0.0000000  1.2552000  3
   2089   2088   2095   2097     1  0.0000000  1.2552000  3
   2089   2101   2113   2114     1  0.0000000  0.6508444  3
   2089   2101   2113   2115     1  0.0000000  0.6508444  3
   2090   2089   2088   2092     1  0.0000000  1.2552000  3
   2090   2089   2088   2095     1  0.0000000  1.2552000  3
   2090   2089   2101   2113     1  0.0000000  0.6508444  3
   2090   2089   2101   2102     1  0.0000000  0.6508444  3
   2090   2089   2101   2103     1  0.0000000  0.6508444  3
   2091   2089   2088   2092     1  0.0000000  1.2552000  3
   2091   2089   2088   2095     1  0.0000000  1.2552000  3
   2091   2089   2101   2113     1  0.0000000  0.6508444  3
   2091   2089   2101   2102     1  0.0000000  0.6508444  3
   2091   2089   2101   2103     1  0.0000000  0.6508444  3
   2092   2088   2095   2096     1  0.0000000  1.2552000  3
   2092   2088   2095   2097     1  0.0000000  1.2552000  3
   2092   2104   2110   2111     1  0.0000000  0.6508444  3
   2092   2104   2110   2112     1  0.0000000  0.6508444  3
   2093   2092   2088   2095     1  0.0000000  1.2552000  3
   2093   2092   2104   2110     1  0.0000000  0.6508444  3
   2093   2092   2104   2105     1  0.0000000  0.6508444  3
   2093   2092   2104   2106     1  0.0000000  0.6508444  3
   2094   2092   2088   2095     1  0.0000000  1.2552000  3
   2094   2092   2104   2110     1  0.0000000  0.6508444  3
   2094   2092   2104   2105     1  0.0000000  0.6508444  3
   2094   2092   2104   2106     1  0.0000000  0.6508444  3
   2095   2098   2107   2108     1  0.0000000  0.6508444  3
   2095   2098   2107   2109     1  0.0000000  0.6508444  3
   2096   2095   2098   2107     1  0.0000000  0.6508444  3
   2096   2095   2098   2099     1  0.0000000  0.6508444  3
   2096   2095   2098   2100     1  0.0000000  0.6508444  3
   2097   2095   2098   2107     1  0.0000000  0.6508444  3
   2097   2095   2098   2099     1  0.0000000  0.6508444  3
   2097   2095   2098   2100     1  0.0000000  0.6508444  3
   2099   2098   2107   2116     1  0.0000000  1.0460000  1
   2099   2098   2107   2116     1  0.0000000  0.0000000  3
   2099   2098   2107   2108     1  0.0000000  0.6508444  3
   2099   2098   2107   2109     1  0.0000000  0.6508444  3
   2100   2098   2107   2116     1  0.0000000  1.0460000  1
   2100   2098   2107   2116     1  0.0000000  0.0000000  3
   2100   2098   2107   2108     1  0.0000000  0.6508444  3
   2100   2098   2107   2109     1  0.0000000  0.6508444  3
   2102   2101   2113   4399     1  0.0000000  1.0460000  1
   2102   2101   2113   4399     1  0.0000000  0.0000000  3
   2102   2101   2113   2114     1  0.0000000  0.6508444  3
   2102   2101   2113   2115     1  0.0000000  0.6508444  3
   2103   2101   2113   4399     1  0.0000000  1.0460000  1
   2103   2101   2113   4399     1  0.0000000  0.0000000  3
   2103   2101   2113   2114     1  0.0000000  0.6508444  3
   2103   2101   2113   2115     1  0.0000000  0.6508444  3
   2105   2104   2110   4368     1  0.0000000  1.0460000  1
   2105   2104   2110   4368     1  0.0000000  0.0000000  3
   2105   2104   2110   2111     1  0.0000000  0.6508444  3
   2105   2104   2110   2112     1  0.0000000  0.6508444  3
   2106   2104   2110   4368     1  0.0000000  1.0460000  1
   2106   2104   2110   4368     1  0.0000000  0.0000000  3
   2106   2104   2110   2111     1  0.0000000  0.6508444  3
   2106   2104   2110   2112     1  0.0000000  0.6508444  3
   2110   4368   4338   4339     1  0.0000000  1.6038667  3
   2110   4368   4338   4340     1  0.0000000  1.6038667  3
   2111   2110   4368   4338     1  0.0000000  1.6038667  3
   2112   2110   4368   4338     1  0.0000000  1.6038667  3
   2113   4399   4369   4370     1  0.0000000  1.6038667  3
   2113   4399   4369   4371     1  0.0000000  1.6038667  3
   2114   2113   4399   4369     1  0.0000000  1.6038667  3
   2115   2113   4399   4369     1  0.0000000  1.6038667  3
   2117   2118   2130   2131     1  0.0000000  0.6508444  3
   2117   2118   2130   2132     1  0.0000000  0.6508444  3
   2117   2121   2133   2134     1  0.0000000  0.6508444  3
   2117   2121   2133   2135     1  0.0000000  0.6508444  3
   2117   2124   2127   2128     1  0.0000000  0.6508444  3
   2117   2124   2127   2129     1  0.0000000  0.6508444  3
   2118   2117   2121   2122     1  0.0000000  1.2552000  3
   2118   2117   2121   2123     1  0.0000000  1.2552000  3
   2118   2117   2124   2125     1  0.0000000  1.2552000  3
   2118   2117   2124   2126     1  0.0000000  1.2552000  3
   2118   2130   2142   2143     1  0.0000000  0.6508444  3
   2118   2130   2142   2144     1  0.0000000  0.6508444  3
   2119   2118   2117   2121     1  0.0000000  1.2552000  3
   2119   2118   2117   2124     1  0.0000000  1.2552000  3
   2119   2118   2130   2142     1  0.0000000  0.6508444  3
   2119   2118   2130   2131     1  0.0000000  0.6508444  3
   2119   2118   2130   2132     1  0.0000000  0.6508444  3
   2120   2118   2117   2121     1  0.0000000  1.2552000  3
   2120   2118   2117   2124     1  0.0000000  1.2552000  3
   2120   2118   2130   2142     1  0.0000000  0.6508444  3
   2120   2118   2130   2131     1  0.0000000  0.6508444  3
   2120   2118   2130   2132     1  0.0000000  0.6508444  3
   2121   2117   2124   2125     1  0.0000000  1.2552000  3
   2121   2117   2124   2126     1  0.0000000  1.2552000  3
   2121   2133   2139   2140     1  0.0000000  0.6508444  3
   2121   2133   2139   2141     1  0.0000000  0.6508444  3
   2122   2121   2117   2124     1  0.0000000  1.2552000  3
   2122   2121   2133   2139     1  0.0000000  0.6508444  3
   2122   2121   2133   2134     1  0.0000000  0.6508444  3
   2122   2121   2133   2135     1  0.0000000  0.6508444  3
   2123   2121   2117   2124     1  0.0000000  1.2552000  3
   2123   2121   2133   2139     1  0.0000000  0.6508444  3
   2123   2121   2133   2134     1  0.0000000  0.6508444  3
   2123   2121   2133   2135     1  0.0000000  0.6508444  3
   2124   2127   2136   2137     1  0.0000000  0.6508444  3
   2124   2127   2136   2138     1  0.0000000  0.6508444  3
   2125   2124   2127   2136     1  0.0000000  0.6508444  3
   2125   2124   2127   2128     1  0.0000000  0.6508444  3
   2125   2124   2127   2129     1  0.0000000  0.6508444  3
   2126   2124   2127   2136     1  0.0000000  0.6508444  3
   2126   2124   2127   2128     1  0.0000000  0.6508444  3
   2126   2124   2127   2129     1  0.0000000  0.6508444  3
   2128   2127   2136   2145     1  0.0000000  1.0460000  1
   2128   2127   2136   2145     1  0.0000000  0.0000000  3
   2128   2127   2136   2137     1  0.0000000  0.6508444  3
   2128   2127   2136   2138     1  0.0000000  0.6508444  3
   2129   2127   2136   2145     1  0.0000000  1.0460000  1
   2129   2127   2136   2145     1  0.0000000  0.0000000  3
   2129   2127   2136   2137     1  0.0000000  0.6508444  3
   2129   2127   2136   2138     1  0.0000000  0.6508444  3
   2131   2130   2142   4461     1  0.0000000  1.0460000  1
   2131   2130   2142   4461     1  0.0000000  0.0000000  3
   2131   2130   2142   2143     1  0.0000000  0.6508444  3
   2131   2130   2142   2144     1  0.0000000  0.6508444  3
   2132   2130   2142   4461     1  0.0000000  1.0460000  1
   2132   2130   2142   4461     1  0.0000000  0.0000000  3
   2132   2130   2142   2143     1  0.0000000  0.6508444  3
   2132   2130   2142   2144     1  0.0000000  0.6508444  3
   2134   2133   2139   4430     1  0.0000000  1.0460000  1
   2134   2133   2139   4430     1  0.0000000  0.0000000  3
   2134   2133   2139   2140     1  0.0000000  0.6508444  3
   2134   2133   2139   2141     1  0.0000000  0.6508444  3
   2135   2133   2139   4430     1  0.0000000  1.0460000  1
   2135   2133   2139   4430     1  0.0000000  0.0000000  3
   2135   2133   2139   2140     1  0.0000000  0.6508444  3
   2135   2133   2139   2141     1  0.0000000  0.6508444  3
   2139   4430   4400   4401     1  0.0000000  1.6038667  3
   2139   4430   4400   4402     1  0.0000000  1.6038667  3
   2140   2139   4430   4400     1  0.0000000  1.6038667  3
   2141   2139   4430   4400     1  0.0000000  1.6038667  3
   2142   4461   4431   4432     1  0.0000000  1.6038667  3
   2142   4461   4431   4433     1  0.0000000  1.6038667  3
   2143   2142   4461   4431     1  0.0000000  1.6038667  3
   2144   2142   4461   4431     1  0.0000000  1.6038667  3
   2146   2147   2159   2160     1  0.0000000  0.6508444  3
   2146   2147   2159   2161     1  0.0000000  0.6508444  3
   2146   2150   2162   2163     1  0.0000000  0.6508444  3
   2146   2150   2162   2164     1  0.0000000  0.6508444  3
   2146   2153   2156   2157     1  0.0000000  0.6508444  3
   2146   2153   2156   2158     1  0.0000000  0.6508444  3
   2147   2146   2150   2151     1  0.0000000  1.2552000  3
   2147   2146   2150   2152     1  0.0000000  1.2552000  3
   2147   2146   2153   2154     1  0.0000000  1.2552000  3
   2147   2146   2153   2155     1  0.0000000  1.2552000  3
   2147   2159   2171   2172     1  0.0000000  0.6508444  3
   2147   2159   2171   2173     1  0.0000000  0.6508444  3
   2148   2147   2146   2150     1  0.0000000  1.2552000  3
   2148   2147   2146   2153     1  0.0000000  1.2552000  3
   2148   2147   2159   2171     1  0.0000000  0.6508444  3
   2148   2147   2159   2160     1  0.0000000  0.6508444  3
   2148   2147   2159   2161     1  0.0000000  0.6508444  3
   2149   2147   2146   2150     1  0.0000000  1.2552000  3
   2149   2147   2146   2153     1  0.0000000  1.2552000  3
   2149   2147   2159   2171     1  0.0000000  0.6508444  3
   2149   2147   2159   2160     1  0.0000000  0.6508444  3
   2149   2147   2159   2161     1  0.0000000  0.6508444  3
   2150   2146   2153   2154     1  0.0000000  1.2552000  3
   2150   2146   2153   2155     1  0.0000000  1.2552000  3
   2150   2162   2168   2169     1  0.0000000  0.6508444  3
   2150   2162   2168   2170     1  0.0000000  0.6508444  3
   2151   2150   2146   2153     1  0.0000000  1.2552000  3
   2151   2150   2162   2168     1  0.0000000  0.6508444  3
   2151   2150   2162   2163     1  0.0000000  0.6508444  3
   2151   2150   2162   2164     1  0.0000000  0.6508444  3
   2152   2150   2146   2153     1  0.0000000  1.2552000  3
   2152   2150   2162   2168     1  0.0000000  0.6508444  3
   2152   2150   2162   2163     1  0.0000000  0.6508444  3
   2152   2150   2162   2164     1  0.0000000  0.6508444  3
   2153   2156   2165   2166     1  0.0000000  0.6508444  3
   2153   2156   2165   2167     1  0.0000000  0.6508444  3
   2154   2153   2156   2165     1  0.0000000  0.6508444  3
   2154   2153   2156   2157     1  0.0000000  0.6508444  3
   2154   2153   2156   2158     1  0.0000000  0.6508444  3
   2155   2153   2156   2165     1  0.0000000  0.6508444  3
   2155   2153   2156   2157     1  0.0000000  0.6508444  3
   2155   2153   2156   2158     1  0.0000000  0.6508444  3
   2157   2156   2165   2174     1  0.0000000  1.0460000  1
   2157   2156   2165   2174     1  0.0000000  0.0000000  3
   2157   2156   2165   2166     1  0.0000000  0.6508444  3
   2157   2156   2165   2167     1  0.0000000  0.6508444  3
   2158   2156   2165   2174     1  0.0000000  1.0460000  1
   2158   2156   2165   2174     1  0.0000000  0.0000000  3
   2158   2156   2165   2166     1  0.0000000  0.6508444  3
   2158   2156   2165   2167     1  0.0000000  0.6508444  3
   2160   2159   2171   4523     1  0.0000000  1.0460000  1
   2160   2159   2171   4523     1  0.0000000  0.0000000  3
   2160   2159   2171   2172     1  0.0000000  0.6508444  3
   2160   2159   2171   2173     1  0.0000000  0.6508444  3
   2161   2159   2171   4523     1  0.0000000  1.0460000  1
   2161   2159   2171   4523     1  0.0000000  0.0000000  3
   2161   2159   2171   2172     1  0.0000000  0.6508444  3
   2161   2159   2171   2173     1  0.0000000  0.6508444  3
   2163   2162   2168   4492     1  0.0000000  1.0460000  1
   2163   2162   2168   4492     1  0.0000000  0.0000000  3
   2163   2162   2168   2169     1  0.0000000  0.6508444  3
   2163   2162   2168   2170     1  0.0000000  0.6508444  3
   2164   2162   2168   4492     1  0.0000000  1.0460000  1
   2164   2162   2168   4492     1  0.0000000  0.0000000  3
   2164   2162   2168   2169     1  0.0000000  0.6508444  3
   2164   2162   2168   2170     1  0.0000000  0.6508444  3
   2168   4492   4462   4463     1  0.0000000  1.6038667  3
   2168   4492   4462   4464     1  0.0000000  1.6038667  3
   2169   2168   4492   4462     1  0.0000000  1.6038667  3
   2170   2168   4492   4462     1  0.0000000  1.6038667  3
   2171   4523   4493   4494     1  0.0000000  1.6038667  3
   2171   4523   4493   4495     1  0.0000000  1.6038667  3
   2172   2171   4523   4493     1  0.0000000  1.6038667  3
   2173   2171   4523   4493     1  0.0000000  1.6038667  3
   2175   2176   2188   2189     1  0.0000000  0.6508444  3
   2175   2176   2188   2190     1  0.0000000  0.6508444  3
   2175   2179   2191   2192     1  0.0000000  0.6508444  3
   2175   2179   2191   2193     1  0.0000000  0.6508444  3
   2175   2182   2185   2186     1  0.0000000  0.6508444  3
   2175   2182   2185   2187     1  0.0000000  0.6508444  3
   2176   2175   2179   2180     1  0.0000000  1.2552000  3
   2176   2175   2179   2181     1  0.0000000  1.2552000  3
   2176   2175   2182   2183     1  0.0000000  1.2552000  3
   2176   2175   2182   2184     1  0.0000000  1.2552000  3
   2176   2188   2200   2201     1  0.0000000  0.6508444  3
   2176   2188   2200   2202     1  0.0000000  0.6508444  3
   2177   2176   2175   2179     1  0.0000000  1.2552000  3
   2177   2176   2175   2182     1  0.0000000  1.2552000  3
   2177   2176   2188   2200     1  0.0000000  0.6508444  3
   2177   2176   2188   2189     1  0.0000000  0.6508444  3
   2177   2176   2188   2190     1  0.0000000  0.6508444  3
   2178   2176   2175   2179     1  0.0000000  1.2552000  3
   2178   2176   2175   2182     1  0.0000000  1.2552000  3
   2178   2176   2188   2200     1  0.0000000  0.6508444  3
   2178   2176   2188   2189     1  0.0000000  0.6508444  3
   2178   2176   2188   2190     1  0.0000000  0.6508444  3
   2179   2175   2182   2183     1  0.0000000  1.2552000  3
   2179   2175   2182   2184     1  0.0000000  1.2552000  3
   2179   2191   2197   2198     1  0.0000000  0.6508444  3
   2179   2191   2197   2199     1  0.0000000  0.6508444  3
   2180   2179   2175   2182     1  0.0000000  1.2552000  3
   2180   2179   2191   2197     1  0.0000000  0.6508444  3
   2180   2179   2191   2192     1  0.0000000  0.6508444  3
   2180   2179   2191   2193     1  0.0000000  0.6508444  3
   2181   2179   2175   2182     1  0.0000000  1.2552000  3
   2181   2179   2191   2197     1  0.0000000  0.6508444  3
   2181   2179   2191   2192     1  0.0000000  0.6508444  3
   2181   2179   2191   2193     1  0.0000000  0.6508444  3
   2182   2185   2194   2195     1  0.0000000  0.6508444  3
   2182   2185   2194   2196     1  0.0000000  0.6508444  3
   2183   2182   2185   2194     1  0.0000000  0.6508444  3
   2183   2182   2185   2186     1  0.0000000  0.6508444  3
   2183   2182   2185   2187     1  0.0000000  0.6508444  3
   2184   2182   2185   2194     1  0.0000000  0.6508444  3
   2184   2182   2185   2186     1  0.0000000  0.6508444  3
   2184   2182   2185   2187     1  0.0000000  0.6508444  3
   2186   2185   2194   2203     1  0.0000000  1.0460000  1
   2186   2185   2194   2203     1  0.0000000  0.0000000  3
   2186   2185   2194   2195     1  0.0000000  0.6508444  3
   2186   2185   2194   2196     1  0.0000000  0.6508444  3
   2187   2185   2194   2203     1  0.0000000  1.0460000  1
   2187   2185   2194   2203     1  0.0000000  0.0000000  3
   2187   2185   2194   2195     1  0.0000000  0.6508444  3
   2187   2185   2194   2196     1  0.0000000  0.6508444  3
   2189   2188   2200   4585     1  0.0000000  1.0460000  1
   2189   2188   2200   4585     1  0.0000000  0.0000000  3
   2189   2188   2200   2201     1  0.0000000  0.6508444  3
   2189   2188   2200   2202     1  0.0000000  0.6508444  3
   2190   2188   2200   4585     1  0.0000000  1.0460000  1
   2190   2188   2200   4585     1  0.0000000  0.0000000  3
   2190   2188   2200   2201     1  0.0000000  0.6508444  3
   2190   2188   2200   2202     1  0.0000000  0.6508444  3
   2192   2191   2197   4554     1  0.0000000  1.0460000  1
   2192   2191   2197   4554     1  0.0000000  0.0000000  3
   2192   2191   2197   2198     1  0.0000000  0.6508444  3
   2192   2191   2197   2199     1  0.0000000  0.6508444  3
   2193   2191   2197   4554     1  0.0000000  1.0460000  1
   2193   2191   2197   4554     1  0.0000000  0.0000000  3
   2193   2191   2197   2198     1  0.0000000  0.6508444  3
   2193   2191   2197   2199     1  0.0000000  0.6508444  3
   2197   4554   4524   4525     1  0.0000000  1.6038667  3
   2197   4554   4524   4526     1  0.0000000  1.6038667  3
   2198   2197   4554   4524     1  0.0000000  1.6038667  3
   2199   2197   4554   4524     1  0.0000000  1.6038667  3
   2200   4585   4555   4556     1  0.0000000  1.6038667  3
   2200   4585   4555   4557     1  0.0000000  1.6038667  3
   2201   2200   4585   4555     1  0.0000000  1.6038667  3
   2202   2200   4585   4555     1  0.0000000  1.6038667  3
   2204   2205   2217   2218     1  0.0000000  0.6508444  3
   2204   2205   2217   2219     1  0.0000000  0.6508444  3
   2204   2208   2220   2221     1  0.0000000  0.6508444  3
   2204   2208   2220   2222     1  0.0000000  0.6508444  3
   2204   2211   2214   2215     1  0.0000000  0.6508444  3
   2204   2211   2214   2216     1  0.0000000  0.6508444  3
   2205   2204   2208   2209     1  0.0000000  1.2552000  3
   2205   2204   2208   2210     1  0.0000000  1.2552000  3
   2205   2204   2211   2212     1  0.0000000  1.2552000  3
   2205   2204   2211   2213     1  0.0000000  1.2552000  3
   2205   2217   2229   2230     1  0.0000000  0.6508444  3
   2205   2217   2229   2231     1  0.0000000  0.6508444  3
   2206   2205   2204   2208     1  0.0000000  1.2552000  3
   2206   2205   2204   2211     1  0.0000000  1.2552000  3
   2206   2205   2217   2229     1  0.0000000  0.6508444  3
   2206   2205   2217   2218     1  0.0000000  0.6508444  3
   2206   2205   2217   2219     1  0.0000000  0.6508444  3
   2207   2205   2204   2208     1  0.0000000  1.2552000  3
   2207   2205   2204   2211     1  0.0000000  1.2552000  3
   2207   2205   2217   2229     1  0.0000000  0.6508444  3
   2207   2205   2217   2218     1  0.0000000  0.6508444  3
   2207   2205   2217   2219     1  0.0000000  0.6508444  3
   2208   2204   2211   2212     1  0.0000000  1.2552000  3
   2208   2204   2211   2213     1  0.0000000  1.2552000  3
   2208   2220   2226   2227     1  0.0000000  0.6508444  3
   2208   2220   2226   2228     1  0.0000000  0.6508444  3
   2209   2208   2204   2211     1  0.0000000  1.2552000  3
   2209   2208   2220   2226     1  0.0000000  0.6508444  3
   2209   2208   2220   2221     1  0.0000000  0.6508444  3
   2209   2208   2220   2222     1  0.0000000  0.6508444  3
   2210   2208   2204   2211     1  0.0000000  1.2552000  3
   2210   2208   2220   2226     1  0.0000000  0.6508444  3
   2210   2208   2220   2221     1  0.0000000  0.6508444  3
   2210   2208   2220   2222     1  0.0000000  0.6508444  3
   2211   2214   2223   2224     1  0.0000000  0.6508444  3
   2211   2214   2223   2225     1  0.0000000  0.6508444  3
   2212   2211   2214   2223     1  0.0000000  0.6508444  3
   2212   2211   2214   2215     1  0.0000000  0.6508444  3
   2212   2211   2214   2216     1  0.0000000  0.6508444  3
   2213   2211   2214   2223     1  0.0000000  0.6508444  3
   2213   2211   2214   2215     1  0.0000000  0.6508444  3
   2213   2211   2214   2216     1  0.0000000  0.6508444  3
   2215   2214   2223   2232     1  0.0000000  1.0460000  1
   2215   2214   2223   2232     1  0.0000000  0.0000000  3
   2215   2214   2223   2224     1  0.0000000  0.6508444  3
   2215   2214   2223   2225     1  0.0000000  0.6508444  3
   2216   2214   2223   2232     1  0.0000000  1.0460000  1
   2216   2214   2223   2232     1  0.0000000  0.0000000  3
   2216   2214   2223   2224     1  0.0000000  0.6508444  3
   2216   2214   2223   2225     1  0.0000000  0.6508444  3
   2218   2217   2229   4647     1  0.0000000  1.0460000  1
   2218   2217   2229   4647     1  0.0000000  0.0000000  3
   2218   2217   2229   2230     1  0.0000000  0.6508444  3
   2218   2217   2229   2231     1  0.0000000  0.6508444  3
   2219   2217   2229   4647     1  0.0000000  1.0460000  1
   2219   2217   2229   4647     1  0.0000000  0.0000000  3
   2219   2217   2229   2230     1  0.0000000  0.6508444  3
   2219   2217   2229   2231     1  0.0000000  0.6508444  3
   2221   2220   2226   4616     1  0.0000000  1.0460000  1
   2221   2220   2226   4616     1  0.0000000  0.0000000  3
   2221   2220   2226   2227     1  0.0000000  0.6508444  3
   2221   2220   2226   2228     1  0.0000000  0.6508444  3
   2222   2220   2226   4616     1  0.0000000  1.0460000  1
   2222   2220   2226   4616     1  0.0000000  0.0000000  3
   2222   2220   2226   2227     1  0.0000000  0.6508444  3
   2222   2220   2226   2228     1  0.0000000  0.6508444  3
   2226   4616   4586   4587     1  0.0000000  1.6038667  3
   2226   4616   4586   4588     1  0.0000000  1.6038667  3
   2227   2226   4616   4586     1  0.0000000  1.6038667  3
   2228   2226   4616   4586     1  0.0000000  1.6038667  3
   2229   4647   4617   4618     1  0.0000000  1.6038667  3
   2229   4647   4617   4619     1  0.0000000  1.6038667  3
   2230   2229   4647   4617     1  0.0000000  1.6038667  3
   2231   2229   4647   4617     1  0.0000000  1.6038667  3
   2233   2234   2246   2247     1  0.0000000  0.6508444  3
   2233   2234   2246   2248     1  0.0000000  0.6508444  3
   2233   2237   2249   2250     1  0.0000000  0.6508444  3
   2233   2237   2249   2251     1  0.0000000  0.6508444  3
   2233   2240   2243   2244     1  0.0000000  0.6508444  3
   2233   2240   2243   2245     1  0.0000000  0.6508444  3
   2234   2233   2237   2238     1  0.0000000  1.2552000  3
   2234   2233   2237   2239     1  0.0000000  1.2552000  3
   2234   2233   2240   2241     1  0.0000000  1.2552000  3
   2234   2233   2240   2242     1  0.0000000  1.2552000  3
   2234   2246   2258   2259     1  0.0000000  0.6508444  3
   2234   2246   2258   2260     1  0.0000000  0.6508444  3
   2235   2234   2233   2237     1  0.0000000  1.2552000  3
   2235   2234   2233   2240     1  0.0000000  1.2552000  3
   2235   2234   2246   2258     1  0.0000000  0.6508444  3
   2235   2234   2246   2247     1  0.0000000  0.6508444  3
   2235   2234   2246   2248     1  0.0000000  0.6508444  3
   2236   2234   2233   2237     1  0.0000000  1.2552000  3
   2236   2234   2233   2240     1  0.0000000  1.2552000  3
   2236   2234   2246   2258     1  0.0000000  0.6508444  3
   2236   2234   2246   2247     1  0.0000000  0.6508444  3
   2236   2234   2246   2248     1  0.0000000  0.6508444  3
   2237   2233   2240   2241     1  0.0000000  1.2552000  3
   2237   2233   2240   2242     1  0.0000000  1.2552000  3
   2237   2249   2255   2256     1  0.0000000  0.6508444  3
   2237   2249   2255   2257     1  0.0000000  0.6508444  3
   2238   2237   2233   2240     1  0.0000000  1.2552000  3
   2238   2237   2249   2255     1  0.0000000  0.6508444  3
   2238   2237   2249   2250     1  0.0000000  0.6508444  3
   2238   2237   2249   2251     1  0.0000000  0.6508444  3
   2239   2237   2233   2240     1  0.0000000  1.2552000  3
   2239   2237   2249   2255     1  0.0000000  0.6508444  3
   2239   2237   2249   2250     1  0.0000000  0.6508444  3
   2239   2237   2249   2251     1  0.0000000  0.6508444  3
   2240   2243   2252   2253     1  0.0000000  0.6508444  3
   2240   2243   2252   2254     1  0.0000000  0.6508444  3
   2241   2240   2243   2252     1  0.0000000  0.6508444  3
   2241   2240   2243   2244     1  0.0000000  0.6508444  3
   2241   2240   2243   2245     1  0.0000000  0.6508444  3
   2242   2240   2243   2252     1  0.0000000  0.6508444  3
   2242   2240   2243   2244     1  0.0000000  0.6508444  3
   2242   2240   2243   2245     1  0.0000000  0.6508444  3
   2244   2243   2252   2261     1  0.0000000  1.0460000  1
   2244   2243   2252   2261     1  0.0000000  0.0000000  3
   2244   2243   2252   2253     1  0.0000000  0.6508444  3
   2244   2243   2252   2254     1  0.0000000  0.6508444  3
   2245   2243   2252   2261     1  0.0000000  1.0460000  1
   2245   2243   2252   2261     1  0.0000000  0.0000000  3
   2245   2243   2252   2253     1  0.0000000  0.6508444  3
   2245   2243   2252   2254     1  0.0000000  0.6508444  3
   2247   2246   2258   4709     1  0.0000000  1.0460000  1
   2247   2246   2258   4709     1  0.0000000  0.0000000  3
   2247   2246   2258   2259     1  0.0000000  0.6508444  3
   2247   2246   2258   2260     1  0.0000000  0.6508444  3
   2248   2246   2258   4709     1  0.0000000  1.0460000  1
   2248   2246   2258   4709     1  0.0000000  0.0000000  3
   2248   2246   2258   2259     1  0.0000000  0.6508444  3
   2248   2246   2258   2260     1  0.0000000  0.6508444  3
   2250   2249   2255   4678     1  0.0000000  1.0460000  1
   2250   2249   2255   4678     1  0.0000000  0.0000000  3
   2250   2249   2255   2256     1  0.0000000  0.6508444  3
   2250   2249   2255   2257     1  0.0000000  0.6508444  3
   2251   2249   2255   4678     1  0.0000000  1.0460000  1
   2251   2249   2255   4678     1  0.0000000  0.0000000  3
   2251   2249   2255   2256     1  0.0000000  0.6508444  3
   2251   2249   2255   2257     1  0.0000000  0.6508444  3
   2255   4678   4648   4649     1  0.0000000  1.6038667  3
   2255   4678   4648   4650     1  0.0000000  1.6038667  3
   2256   2255   4678   4648     1  0.0000000  1.6038667  3
   2257   2255   4678   4648     1  0.0000000  1.6038667  3
   2258   4709   4679   4680     1  0.0000000  1.6038667  3
   2258   4709   4679   4681     1  0.0000000  1.6038667  3
   2259   2258   4709   4679     1  0.0000000  1.6038667  3
   2260   2258   4709   4679     1  0.0000000  1.6038667  3
   2262   2263   2275   2276     1  0.0000000  0.6508444  3
   2262   2263   2275   2277     1  0.0000000  0.6508444  3
   2262   2266   2278   2279     1  0.0000000  0.6508444  3
   2262   2266   2278   2280     1  0.0000000  0.6508444  3
   2262   2269   2272   2273     1  0.0000000  0.6508444  3
   2262   2269   2272   2274     1  0.0000000  0.6508444  3
   2263   2262   2266   2267     1  0.0000000  1.2552000  3
   2263   2262   2266   2268     1  0.0000000  1.2552000  3
   2263   2262   2269   2270     1  0.0000000  1.2552000  3
   2263   2262   2269   2271     1  0.0000000  1.2552000  3
   2263   2275   2287   2288     1  0.0000000  0.6508444  3
   2263   2275   2287   2289     1  0.0000000  0.6508444  3
   2264   2263   2262   2266     1  0.0000000  1.2552000  3
   2264   2263   2262   2269     1  0.0000000  1.2552000  3
   2264   2263   2275   2287     1  0.0000000  0.6508444  3
   2264   2263   2275   2276     1  0.0000000  0.6508444  3
   2264   2263   2275   2277     1  0.0000000  0.6508444  3
   2265   2263   2262   2266     1  0.0000000  1.2552000  3
   2265   2263   2262   2269     1  0.0000000  1.2552000  3
   2265   2263   2275   2287     1  0.0000000  0.6508444  3
   2265   2263   2275   2276     1  0.0000000  0.6508444  3
   2265   2263   2275   2277     1  0.0000000  0.6508444  3
   2266   2262   2269   2270     1  0.0000000  1.2552000  3
   2266   2262   2269   2271     1  0.0000000  1.2552000  3
   2266   2278   2284   2285     1  0.0000000  0.6508444  3
   2266   2278   2284   2286     1  0.0000000  0.6508444  3
   2267   2266   2262   2269     1  0.0000000  1.2552000  3
   2267   2266   2278   2284     1  0.0000000  0.6508444  3
   2267   2266   2278   2279     1  0.0000000  0.6508444  3
   2267   2266   2278   2280     1  0.0000000  0.6508444  3
   2268   2266   2262   2269     1  0.0000000  1.2552000  3
   2268   2266   2278   2284     1  0.0000000  0.6508444  3
   2268   2266   2278   2279     1  0.0000000  0.6508444  3
   2268   2266   2278   2280     1  0.0000000  0.6508444  3
   2269   2272   2281   2282     1  0.0000000  0.6508444  3
   2269   2272   2281   2283     1  0.0000000  0.6508444  3
   2270   2269   2272   2281     1  0.0000000  0.6508444  3
   2270   2269   2272   2273     1  0.0000000  0.6508444  3
   2270   2269   2272   2274     1  0.0000000  0.6508444  3
   2271   2269   2272   2281     1  0.0000000  0.6508444  3
   2271   2269   2272   2273     1  0.0000000  0.6508444  3
   2271   2269   2272   2274     1  0.0000000  0.6508444  3
   2273   2272   2281   2290     1  0.0000000  1.0460000  1
   2273   2272   2281   2290     1  0.0000000  0.0000000  3
   2273   2272   2281   2282     1  0.0000000  0.6508444  3
   2273   2272   2281   2283     1  0.0000000  0.6508444  3
   2274   2272   2281   2290     1  0.0000000  1.0460000  1
   2274   2272   2281   2290     1  0.0000000  0.0000000  3
   2274   2272   2281   2282     1  0.0000000  0.6508444  3
   2274   2272   2281   2283     1  0.0000000  0.6508444  3
   2276   2275   2287   4771     1  0.0000000  1.0460000  1
   2276   2275   2287   4771     1  0.0000000  0.0000000  3
   2276   2275   2287   2288     1  0.0000000  0.6508444  3
   2276   2275   2287   2289     1  0.0000000  0.6508444  3
   2277   2275   2287   4771     1  0.0000000  1.0460000  1
   2277   2275   2287   4771     1  0.0000000  0.0000000  3
   2277   2275   2287   2288     1  0.0000000  0.6508444  3
   2277   2275   2287   2289     1  0.0000000  0.6508444  3
   2279   2278   2284   4740     1  0.0000000  1.0460000  1
   2279   2278   2284   4740     1  0.0000000  0.0000000  3
   2279   2278   2284   2285     1  0.0000000  0.6508444  3
   2279   2278   2284   2286     1  0.0000000  0.6508444  3
   2280   2278   2284   4740     1  0.0000000  1.0460000  1
   2280   2278   2284   4740     1  0.0000000  0.0000000  3
   2280   2278   2284   2285     1  0.0000000  0.6508444  3
   2280   2278   2284   2286     1  0.0000000  0.6508444  3
   2284   4740   4710   4711     1  0.0000000  1.6038667  3
   2284   4740   4710   4712     1  0.0000000  1.6038667  3
   2285   2284   4740   4710     1  0.0000000  1.6038667  3
   2286   2284   4740   4710     1  0.0000000  1.6038667  3
   2287   4771   4741   4742     1  0.0000000  1.6038667  3
   2287   4771   4741   4743     1  0.0000000  1.6038667  3
   2288   2287   4771   4741     1  0.0000000  1.6038667  3
   2289   2287   4771   4741     1  0.0000000  1.6038667  3
   2291   2292   2304   2305     1  0.0000000  0.6508444  3
   2291   2292   2304   2306     1  0.0000000  0.6508444  3
   2291   2295   2307   2308     1  0.0000000  0.6508444  3
   2291   2295   2307   2309     1  0.0000000  0.6508444  3
   2291   2298   2301   2302     1  0.0000000  0.6508444  3
   2291   2298   2301   2303     1  0.0000000  0.6508444  3
   2292   2291   2295   2296     1  0.0000000  1.2552000  3
   2292   2291   2295   2297     1  0.0000000  1.2552000  3
   2292   2291   2298   2299     1  0.0000000  1.2552000  3
   2292   2291   2298   2300     1  0.0000000  1.2552000  3
   2292   2304   2316   2317     1  0.0000000  0.6508444  3
   2292   2304   2316   2318     1  0.0000000  0.6508444  3
   2293   2292   2291   2295     1  0.0000000  1.2552000  3
   2293   2292   2291   2298     1  0.0000000  1.2552000  3
   2293   2292   2304   2316     1  0.0000000  0.6508444  3
   2293   2292   2304   2305     1  0.0000000  0.6508444  3
   2293   2292   2304   2306     1  0.0000000  0.6508444  3
   2294   2292   2291   2295     1  0.0000000  1.2552000  3
   2294   2292   2291   2298     1  0.0000000  1.2552000  3
   2294   2292   2304   2316     1  0.0000000  0.6508444  3
   2294   2292   2304   2305     1  0.0000000  0.6508444  3
   2294   2292   2304   2306     1  0.0000000  0.6508444  3
   2295   2291   2298   2299     1  0.0000000  1.2552000  3
   2295   2291   2298   2300     1  0.0000000  1.2552000  3
   2295   2307   2313   2314     1  0.0000000  0.6508444  3
   2295   2307   2313   2315     1  0.0000000  0.6508444  3
   2296   2295   2291   2298     1  0.0000000  1.2552000  3
   2296   2295   2307   2313     1  0.0000000  0.6508444  3
   2296   2295   2307   2308     1  0.0000000  0.6508444  3
   2296   2295   2307   2309     1  0.0000000  0.6508444  3
   2297   2295   2291   2298     1  0.0000000  1.2552000  3
   2297   2295   2307   2313     1  0.0000000  0.6508444  3
   2297   2295   2307   2308     1  0.0000000  0.6508444  3
   2297   2295   2307   2309     1  0.0000000  0.6508444  3
   2298   2301   2310   2311     1  0.0000000  0.6508444  3
   2298   2301   2310   2312     1  0.0000000  0.6508444  3
   2299   2298   2301   2310     1  0.0000000  0.6508444  3
   2299   2298   2301   2302     1  0.0000000  0.6508444  3
   2299   2298   2301   2303     1  0.0000000  0.6508444  3
   2300   2298   2301   2310     1  0.0000000  0.6508444  3
   2300   2298   2301   2302     1  0.0000000  0.6508444  3
   2300   2298   2301   2303     1  0.0000000  0.6508444  3
   2302   2301   2310   2319     1  0.0000000  1.0460000  1
   2302   2301   2310   2319     1  0.0000000  0.0000000  3
   2302   2301   2310   2311     1  0.0000000  0.6508444  3
   2302   2301   2310   2312     1  0.0000000  0.6508444  3
   2303   2301   2310   2319     1  0.0000000  1.0460000  1
   2303   2301   2310   2319     1  0.0000000  0.0000000  3
   2303   2301   2310   2311     1  0.0000000  0.6508444  3
   2303   2301   2310   2312     1  0.0000000  0.6508444  3
   2305   2304   2316   4833     1  0.0000000  1.0460000  1
   2305   2304   2316   4833     1  0.0000000  0.0000000  3
   2305   2304   2316   2317     1  0.0000000  0.6508444  3
   2305   2304   2316   2318     1  0.0000000  0.6508444  3
   2306   2304   2316   4833     1  0.0000000  1.0460000  1
   2306   2304   2316   4833     1  0.0000000  0.0000000  3
   2306   2304   2316   2317     1  0.0000000  0.6508444  3
   2306   2304   2316   2318     1  0.0000000  0.6508444  3
   2308   2307   2313   4802     1  0.0000000  1.0460000  1
   2308   2307   2313   4802     1  0.0000000  0.0000000  3
   2308   2307   2313   2314     1  0.0000000  0.6508444  3
   2308   2307   2313   2315     1  0.0000000  0.6508444  3
   2309   2307   2313   4802     1  0.0000000  1.0460000  1
   2309   2307   2313   4802     1  0.0000000  0.0000000  3
   2309   2307   2313   2314     1  0.0000000  0.6508444  3
   2309   2307   2313   2315     1  0.0000000  0.6508444  3
   2313   4802   4772   4773     1  0.0000000  1.6038667  3
   2313   4802   4772   4774     1  0.0000000  1.6038667  3
   2314   2313   4802   4772     1  0.0000000  1.6038667  3
   2315   2313   4802   4772     1  0.0000000  1.6038667  3
   2316   4833   4803   4804     1  0.0000000  1.6038667  3
   2316   4833   4803   4805     1  0.0000000  1.6038667  3
   2317   2316   4833   4803     1  0.0000000  1.6038667  3
   2318   2316   4833   4803     1  0.0000000  1.6038667  3
   2320   2321   2333   2334     1  0.0000000  0.6508444  3
   2320   2321   2333   2335     1  0.0000000  0.6508444  3
   2320   2324   2336   2337     1  0.0000000  0.6508444  3
   2320   2324   2336   2338     1  0.0000000  0.6508444  3
   2320   2327   2330   2331     1  0.0000000  0.6508444  3
   2320   2327   2330   2332     1  0.0000000  0.6508444  3
   2321   2320   2324   2325     1  0.0000000  1.2552000  3
   2321   2320   2324   2326     1  0.0000000  1.2552000  3
   2321   2320   2327   2328     1  0.0000000  1.2552000  3
   2321   2320   2327   2329     1  0.0000000  1.2552000  3
   2321   2333   2345   2346     1  0.0000000  0.6508444  3
   2321   2333   2345   2347     1  0.0000000  0.6508444  3
   2322   2321   2320   2324     1  0.0000000  1.2552000  3
   2322   2321   2320   2327     1  0.0000000  1.2552000  3
   2322   2321   2333   2345     1  0.0000000  0.6508444  3
   2322   2321   2333   2334     1  0.0000000  0.6508444  3
   2322   2321   2333   2335     1  0.0000000  0.6508444  3
   2323   2321   2320   2324     1  0.0000000  1.2552000  3
   2323   2321   2320   2327     1  0.0000000  1.2552000  3
   2323   2321   2333   2345     1  0.0000000  0.6508444  3
   2323   2321   2333   2334     1  0.0000000  0.6508444  3
   2323   2321   2333   2335     1  0.0000000  0.6508444  3
   2324   2320   2327   2328     1  0.0000000  1.2552000  3
   2324   2320   2327   2329     1  0.0000000  1.2552000  3
   2324   2336   2342   2343     1  0.0000000  0.6508444  3
   2324   2336   2342   2344     1  0.0000000  0.6508444  3
   2325   2324   2320   2327     1  0.0000000  1.2552000  3
   2325   2324   2336   2342     1  0.0000000  0.6508444  3
   2325   2324   2336   2337     1  0.0000000  0.6508444  3
   2325   2324   2336   2338     1  0.0000000  0.6508444  3
   2326   2324   2320   2327     1  0.0000000  1.2552000  3
   2326   2324   2336   2342     1  0.0000000  0.6508444  3
   2326   2324   2336   2337     1  0.0000000  0.6508444  3
   2326   2324   2336   2338     1  0.0000000  0.6508444  3
   2327   2330   2339   2340     1  0.0000000  0.6508444  3
   2327   2330   2339   2341     1  0.0000000  0.6508444  3
   2328   2327   2330   2339     1  0.0000000  0.6508444  3
   2328   2327   2330   2331     1  0.0000000  0.6508444  3
   2328   2327   2330   2332     1  0.0000000  0.6508444  3
   2329   2327   2330   2339     1  0.0000000  0.6508444  3
   2329   2327   2330   2331     1  0.0000000  0.6508444  3
   2329   2327   2330   2332     1  0.0000000  0.6508444  3
   2331   2330   2339   2348     1  0.0000000  1.0460000  1
   2331   2330   2339   2348     1  0.0000000  0.0000000  3
   2331   2330   2339   2340     1  0.0000000  0.6508444  3
   2331   2330   2339   2341     1  0.0000000  0.6508444  3
   2332   2330   2339   2348     1  0.0000000  1.0460000  1
   2332   2330   2339   2348     1  0.0000000  0.0000000  3
   2332   2330   2339   2340     1  0.0000000  0.6508444  3
   2332   2330   2339   2341     1  0.0000000  0.6508444  3
   2334   2333   2345   4895     1  0.0000000  1.0460000  1
   2334   2333   2345   4895     1  0.0000000  0.0000000  3
   2334   2333   2345   2346     1  0.0000000  0.6508444  3
   2334   2333   2345   2347     1  0.0000000  0.6508444  3
   2335   2333   2345   4895     1  0.0000000  1.0460000  1
   2335   2333   2345   4895     1  0.0000000  0.0000000  3
   2335   2333   2345   2346     1  0.0000000  0.6508444  3
   2335   2333   2345   2347     1  0.0000000  0.6508444  3
   2337   2336   2342   4864     1  0.0000000  1.0460000  1
   2337   2336   2342   4864     1  0.0000000  0.0000000  3
   2337   2336   2342   2343     1  0.0000000  0.6508444  3
   2337   2336   2342   2344     1  0.0000000  0.6508444  3
   2338   2336   2342   4864     1  0.0000000  1.0460000  1
   2338   2336   2342   4864     1  0.0000000  0.0000000  3
   2338   2336   2342   2343     1  0.0000000  0.6508444  3
   2338   2336   2342   2344     1  0.0000000  0.6508444  3
   2342   4864   4834   4835     1  0.0000000  1.6038667  3
   2342   4864   4834   4836     1  0.0000000  1.6038667  3
   2343   2342   4864   4834     1  0.0000000  1.6038667  3
   2344   2342   4864   4834     1  0.0000000  1.6038667  3
   2345   4895   4865   4866     1  0.0000000  1.6038667  3
   2345   4895   4865   4867     1  0.0000000  1.6038667  3
   2346   2345   4895   4865     1  0.0000000  1.6038667  3
   2347   2345   4895   4865     1  0.0000000  1.6038667  3
   2349   2350   2362   2363     1  0.0000000  0.6508444  3
   2349   2350   2362   2364     1  0.0000000  0.6508444  3
   2349   2353   2365   2366     1  0.0000000  0.6508444  3
   2349   2353   2365   2367     1  0.0000000  0.6508444  3
   2349   2356   2359   2360     1  0.0000000  0.6508444  3
   2349   2356   2359   2361     1  0.0000000  0.6508444  3
   2350   2349   2353   2354     1  0.0000000  1.2552000  3
   2350   2349   2353   2355     1  0.0000000  1.2552000  3
   2350   2349   2356   2357     1  0.0000000  1.2552000  3
   2350   2349   2356   2358     1  0.0000000  1.2552000  3
   2350   2362   2374   2375     1  0.0000000  0.6508444  3
   2350   2362   2374   2376     1  0.0000000  0.6508444  3
   2351   2350   2349   2353     1  0.0000000  1.2552000  3
   2351   2350   2349   2356     1  0.0000000  1.2552000  3
   2351   2350   2362   2374     1  0.0000000  0.6508444  3
   2351   2350   2362   2363     1  0.0000000  0.6508444  3
   2351   2350   2362   2364     1  0.0000000  0.6508444  3
   2352   2350   2349   2353     1  0.0000000  1.2552000  3
   2352   2350   2349   2356     1  0.0000000  1.2552000  3
   2352   2350   2362   2374     1  0.0000000  0.6508444  3
   2352   2350   2362   2363     1  0.0000000  0.6508444  3
   2352   2350   2362   2364     1  0.0000000  0.6508444  3
   2353   2349   2356   2357     1  0.0000000  1.2552000  3
   2353   2349   2356   2358     1  0.0000000  1.2552000  3
   2353   2365   2371   2372     1  0.0000000  0.6508444  3
   2353   2365   2371   2373     1  0.0000000  0.6508444  3
   2354   2353   2349   2356     1  0.0000000  1.2552000  3
   2354   2353   2365   2371     1  0.0000000  0.6508444  3
   2354   2353   2365   2366     1  0.0000000  0.6508444  3
   2354   2353   2365   2367     1  0.0000000  0.6508444  3
   2355   2353   2349   2356     1  0.0000000  1.2552000  3
   2355   2353   2365   2371     1  0.0000000  0.6508444  3
   2355   2353   2365   2366     1  0.0000000  0.6508444  3
   2355   2353   2365   2367     1  0.0000000  0.6508444  3
   2356   2359   2368   2369     1  0.0000000  0.6508444  3
   2356   2359   2368   2370     1  0.0000000  0.6508444  3
   2357   2356   2359   2368     1  0.0000000  0.6508444  3
   2357   2356   2359   2360     1  0.0000000  0.6508444  3
   2357   2356   2359   2361     1  0.0000000  0.6508444  3
   2358   2356   2359   2368     1  0.0000000  0.6508444  3
   2358   2356   2359   2360     1  0.0000000  0.6508444  3
   2358   2356   2359   2361     1  0.0000000  0.6508444  3
   2360   2359   2368   2377     1  0.0000000  1.0460000  1
   2360   2359   2368   2377     1  0.0000000  0.0000000  3
   2360   2359   2368   2369     1  0.0000000  0.6508444  3
   2360   2359   2368   2370     1  0.0000000  0.6508444  3
   2361   2359   2368   2377     1  0.0000000  1.0460000  1
   2361   2359   2368   2377     1  0.0000000  0.0000000  3
   2361   2359   2368   2369     1  0.0000000  0.6508444  3
   2361   2359   2368   2370     1  0.0000000  0.6508444  3
   2363   2362   2374   4957     1  0.0000000  1.0460000  1
   2363   2362   2374   4957     1  0.0000000  0.0000000  3
   2363   2362   2374   2375     1  0.0000000  0.6508444  3
   2363   2362   2374   2376     1  0.0000000  0.6508444  3
   2364   2362   2374   4957     1  0.0000000  1.0460000  1
   2364   2362   2374   4957     1  0.0000000  0.0000000  3
   2364   2362   2374   2375     1  0.0000000  0.6508444  3
   2364   2362   2374   2376     1  0.0000000  0.6508444  3
   2366   2365   2371   4926     1  0.0000000  1.0460000  1
   2366   2365   2371   4926     1  0.0000000  0.0000000  3
   2366   2365   2371   2372     1  0.0000000  0.6508444  3
   2366   2365   2371   2373     1  0.0000000  0.6508444  3
   2367   2365   2371   4926     1  0.0000000  1.0460000  1
   2367   2365   2371   4926     1  0.0000000  0.0000000  3
   2367   2365   2371   2372     1  0.0000000  0.6508444  3
   2367   2365   2371   2373     1  0.0000000  0.6508444  3
   2371   4926   4896   4897     1  0.0000000  1.6038667  3
   2371   4926   4896   4898     1  0.0000000  1.6038667  3
   2372   2371   4926   4896     1  0.0000000  1.6038667  3
   2373   2371   4926   4896     1  0.0000000  1.6038667  3
   2374   4957   4927   4928     1  0.0000000  1.6038667  3
   2374   4957   4927   4929     1  0.0000000  1.6038667  3
   2375   2374   4957   4927     1  0.0000000  1.6038667  3
   2376   2374   4957   4927     1  0.0000000  1.6038667  3
   2378   2379   2391   2392     1  0.0000000  0.6508444  3
   2378   2379   2391   2393     1  0.0000000  0.6508444  3
   2378   2382   2394   2395     1  0.0000000  0.6508444  3
   2378   2382   2394   2396     1  0.0000000  0.6508444  3
   2378   2385   2388   2389     1  0.0000000  0.6508444  3
   2378   2385   2388   2390     1  0.0000000  0.6508444  3
   2379   2378   2382   2383     1  0.0000000  1.2552000  3
   2379   2378   2382   2384     1  0.0000000  1.2552000  3
   2379   2378   2385   2386     1  0.0000000  1.2552000  3
   2379   2378   2385   2387     1  0.0000000  1.2552000  3
   2379   2391   2403   2404     1  0.0000000  0.6508444  3
   2379   2391   2403   2405     1  0.0000000  0.6508444  3
   2380   2379   2378   2382     1  0.0000000  1.2552000  3
   2380   2379   2378   2385     1  0.0000000  1.2552000  3
   2380   2379   2391   2403     1  0.0000000  0.6508444  3
   2380   2379   2391   2392     1  0.0000000  0.6508444  3
   2380   2379   2391   2393     1  0.0000000  0.6508444  3
   2381   2379   2378   2382     1  0.0000000  1.2552000  3
   2381   2379   2378   2385     1  0.0000000  1.2552000  3
   2381   2379   2391   2403     1  0.0000000  0.6508444  3
   2381   2379   2391   2392     1  0.0000000  0.6508444  3
   2381   2379   2391   2393     1  0.0000000  0.6508444  3
   2382   2378   2385   2386     1  0.0000000  1.2552000  3
   2382   2378   2385   2387     1  0.0000000  1.2552000  3
   2382   2394   2400   2401     1  0.0000000  0.6508444  3
   2382   2394   2400   2402     1  0.0000000  0.6508444  3
   2383   2382   2378   2385     1  0.0000000  1.2552000  3
   2383   2382   2394   2400     1  0.0000000  0.6508444  3
   2383   2382   2394   2395     1  0.0000000  0.6508444  3
   2383   2382   2394   2396     1  0.0000000  0.6508444  3
   2384   2382   2378   2385     1  0.0000000  1.2552000  3
   2384   2382   2394   2400     1  0.0000000  0.6508444  3
   2384   2382   2394   2395     1  0.0000000  0.6508444  3
   2384   2382   2394   2396     1  0.0000000  0.6508444  3
   2385   2388   2397   2398     1  0.0000000  0.6508444  3
   2385   2388   2397   2399     1  0.0000000  0.6508444  3
   2386   2385   2388   2397     1  0.0000000  0.6508444  3
   2386   2385   2388   2389     1  0.0000000  0.6508444  3
   2386   2385   2388   2390     1  0.0000000  0.6508444  3
   2387   2385   2388   2397     1  0.0000000  0.6508444  3
   2387   2385   2388   2389     1  0.0000000  0.6508444  3
   2387   2385   2388   2390     1  0.0000000  0.6508444  3
   2389   2388   2397   2406     1  0.0000000  1.0460000  1
   2389   2388   2397   2406     1  0.0000000  0.0000000  3
   2389   2388   2397   2398     1  0.0000000  0.6508444  3
   2389   2388   2397   2399     1  0.0000000  0.6508444  3
   2390   2388   2397   2406     1  0.0000000  1.0460000  1
   2390   2388   2397   2406     1  0.0000000  0.0000000  3
   2390   2388   2397   2398     1  0.0000000  0.6508444  3
   2390   2388   2397   2399     1  0.0000000  0.6508444  3
   2392   2391   2403   5019     1  0.0000000  1.0460000  1
   2392   2391   2403   5019     1  0.0000000  0.0000000  3
   2392   2391   2403   2404     1  0.0000000  0.6508444  3
   2392   2391   2403   2405     1  0.0000000  0.6508444  3
   2393   2391   2403   5019     1  0.0000000  1.0460000  1
   2393   2391   2403   5019     1  0.0000000  0.0000000  3
   2393   2391   2403   2404     1  0.0000000  0.6508444  3
   2393   2391   2403   2405     1  0.0000000  0.6508444  3
   2395   2394   2400   4988     1  0.0000000  1.0460000  1
   2395   2394   2400   4988     1  0.0000000  0.0000000  3
   2395   2394   2400   2401     1  0.0000000  0.6508444  3
   2395   2394   2400   2402     1  0.0000000  0.6508444  3
   2396   2394   2400   4988     1  0.0000000  1.0460000  1
   2396   2394   2400   4988     1  0.0000000  0.0000000  3
   2396   2394   2400   2401     1  0.0000000  0.6508444  3
   2396   2394   2400   2402     1  0.0000000  0.6508444  3
   2400   4988   4958   4959     1  0.0000000  1.6038667  3
   2400   4988   4958   4960     1  0.0000000  1.6038667  3
   2401   2400   4988   4958     1  0.0000000  1.6038667  3
   2402   2400   4988   4958     1  0.0000000  1.6038667  3
   2403   5019   4989   4990     1  0.0000000  1.6038667  3
   2403   5019   4989   4991     1  0.0000000  1.6038667  3
   2404   2403   5019   4989     1  0.0000000  1.6038667  3
   2405   2403   5019   4989     1  0.0000000  1.6038667  3
   2407   2408   2420   2421     1  0.0000000  0.6508444  3
   2407   2408   2420   2422     1  0.0000000  0.6508444  3
   2407   2411   2423   2424     1  0.0000000  0.6508444  3
   2407   2411   2423   2425     1  0.0000000  0.6508444  3
   2407   2414   2417   2418     1  0.0000000  0.6508444  3
   2407   2414   2417   2419     1  0.0000000  0.6508444  3
   2408   2407   2411   2412     1  0.0000000  1.2552000  3
   2408   2407   2411   2413     1  0.0000000  1.2552000  3
   2408   2407   2414   2415     1  0.0000000  1.2552000  3
   2408   2407   2414   2416     1  0.0000000  1.2552000  3
   2408   2420   2432   2433     1  0.0000000  0.6508444  3
   2408   2420   2432   2434     1  0.0000000  0.6508444  3
   2409   2408   2407   2411     1  0.0000000  1.2552000  3
   2409   2408   2407   2414     1  0.0000000  1.2552000  3
   2409   2408   2420   2432     1  0.0000000  0.6508444  3
   2409   2408   2420   2421     1  0.0000000  0.6508444  3
   2409   2408   2420   2422     1  0.0000000  0.6508444  3
   2410   2408   2407   2411     1  0.0000000  1.2552000  3
   2410   2408   2407   2414     1  0.0000000  1.2552000  3
   2410   2408   2420   2432     1  0.0000000  0.6508444  3
   2410   2408   2420   2421     1  0.0000000  0.6508444  3
   2410   2408   2420   2422     1  0.0000000  0.6508444  3
   2411   2407   2414   2415     1  0.0000000  1.2552000  3
   2411   2407   2414   2416     1  0.0000000  1.2552000  3
   2411   2423   2429   2430     1  0.0000000  0.6508444  3
   2411   2423   2429   2431     1  0.0000000  0.6508444  3
   2412   2411   2407   2414     1  0.0000000  1.2552000  3
   2412   2411   2423   2429     1  0.0000000  0.6508444  3
   2412   2411   2423   2424     1  0.0000000  0.6508444  3
   2412   2411   2423   2425     1  0.0000000  0.6508444  3
   2413   2411   2407   2414     1  0.0000000  1.2552000  3
   2413   2411   2423   2429     1  0.0000000  0.6508444  3
   2413   2411   2423   2424     1  0.0000000  0.6508444  3
   2413   2411   2423   2425     1  0.0000000  0.6508444  3
   2414   2417   2426   2427     1  0.0000000  0.6508444  3
   2414   2417   2426   2428     1  0.0000000  0.6508444  3
   2415   2414   2417   2426     1  0.0000000  0.6508444  3
   2415   2414   2417   2418     1  0.0000000  0.6508444  3
   2415   2414   2417   2419     1  0.0000000  0.6508444  3
   2416   2414   2417   2426     1  0.0000000  0.6508444  3
   2416   2414   2417   2418     1  0.0000000  0.6508444  3
   2416   2414   2417   2419     1  0.0000000  0.6508444  3
   2418   2417   2426   2435     1  0.0000000  1.0460000  1
   2418   2417   2426   2435     1  0.0000000  0.0000000  3
   2418   2417   2426   2427     1  0.0000000  0.6508444  3
   2418   2417   2426   2428     1  0.0000000  0.6508444  3
   2419   2417   2426   2435     1  0.0000000  1.0460000  1
   2419   2417   2426   2435     1  0.0000000  0.0000000  3
   2419   2417   2426   2427     1  0.0000000  0.6508444  3
   2419   2417   2426   2428     1  0.0000000  0.6508444  3
   2421   2420   2432   5081     1  0.0000000  1.0460000  1
   2421   2420   2432   5081     1  0.0000000  0.0000000  3
   2421   2420   2432   2433     1  0.0000000  0.6508444  3
   2421   2420   2432   2434     1  0.0000000  0.6508444  3
   2422   2420   2432   5081     1  0.0000000  1.0460000  1
   2422   2420   2432   5081     1  0.0000000  0.0000000  3
   2422   2420   2432   2433     1  0.0000000  0.6508444  3
   2422   2420   2432   2434     1  0.0000000  0.6508444  3
   2424   2423   2429   5050     1  0.0000000  1.0460000  1
   2424   2423   2429   5050     1  0.0000000  0.0000000  3
   2424   2423   2429   2430     1  0.0000000  0.6508444  3
   2424   2423   2429   2431     1  0.0000000  0.6508444  3
   2425   2423   2429   5050     1  0.0000000  1.0460000  1
   2425   2423   2429   5050     1  0.0000000  0.0000000  3
   2425   2423   2429   2430     1  0.0000000  0.6508444  3
   2425   2423   2429   2431     1  0.0000000  0.6508444  3
   2429   5050   5020   5021     1  0.0000000  1.6038667  3
   2429   5050   5020   5022     1  0.0000000  1.6038667  3
   2430   2429   5050   5020     1  0.0000000  1.6038667  3
   2431   2429   5050   5020     1  0.0000000  1.6038667  3
   2432   5081   5051   5052     1  0.0000000  1.6038667  3
   2432   5081   5051   5053     1  0.0000000  1.6038667  3
   2433   2432   5081   5051     1  0.0000000  1.6038667  3
   2434   2432   5081   5051     1  0.0000000  1.6038667  3
   2436   2437   2449   2450     1  0.0000000  0.6508444  3
   2436   2437   2449   2451     1  0.0000000  0.6508444  3
   2436   2440   2452   2453     1  0.0000000  0.6508444  3
   2436   2440   2452   2454     1  0.0000000  0.6508444  3
   2436   2443   2446   2447     1  0.0000000  0.6508444  3
   2436   2443   2446   2448     1  0.0000000  0.6508444  3
   2437   2436   2440   2441     1  0.0000000  1.2552000  3
   2437   2436   2440   2442     1  0.0000000  1.2552000  3
   2437   2436   2443   2444     1  0.0000000  1.2552000  3
   2437   2436   2443   2445     1  0.0000000  1.2552000  3
   2437   2449   2461   2462     1  0.0000000  0.6508444  3
   2437   2449   2461   2463     1  0.0000000  0.6508444  3
   2438   2437   2436   2440     1  0.0000000  1.2552000  3
   2438   2437   2436   2443     1  0.0000000  1.2552000  3
   2438   2437   2449   2461     1  0.0000000  0.6508444  3
   2438   2437   2449   2450     1  0.0000000  0.6508444  3
   2438   2437   2449   2451     1  0.0000000  0.6508444  3
   2439   2437   2436   2440     1  0.0000000  1.2552000  3
   2439   2437   2436   2443     1  0.0000000  1.2552000  3
   2439   2437   2449   2461     1  0.0000000  0.6508444  3
   2439   2437   2449   2450     1  0.0000000  0.6508444  3
   2439   2437   2449   2451     1  0.0000000  0.6508444  3
   2440   2436   2443   2444     1  0.0000000  1.2552000  3
   2440   2436   2443   2445     1  0.0000000  1.2552000  3
   2440   2452   2458   2459     1  0.0000000  0.6508444  3
   2440   2452   2458   2460     1  0.0000000  0.6508444  3
   2441   2440   2436   2443     1  0.0000000  1.2552000  3
   2441   2440   2452   2458     1  0.0000000  0.6508444  3
   2441   2440   2452   2453     1  0.0000000  0.6508444  3
   2441   2440   2452   2454     1  0.0000000  0.6508444  3
   2442   2440   2436   2443     1  0.0000000  1.2552000  3
   2442   2440   2452   2458     1  0.0000000  0.6508444  3
   2442   2440   2452   2453     1  0.0000000  0.6508444  3
   2442   2440   2452   2454     1  0.0000000  0.6508444  3
   2443   2446   2455   2456     1  0.0000000  0.6508444  3
   2443   2446   2455   2457     1  0.0000000  0.6508444  3
   2444   2443   2446   2455     1  0.0000000  0.6508444  3
   2444   2443   2446   2447     1  0.0000000  0.6508444  3
   2444   2443   2446   2448     1  0.0000000  0.6508444  3
   2445   2443   2446   2455     1  0.0000000  0.6508444  3
   2445   2443   2446   2447     1  0.0000000  0.6508444  3
   2445   2443   2446   2448     1  0.0000000  0.6508444  3
   2447   2446   2455   2464     1  0.0000000  1.0460000  1
   2447   2446   2455   2464     1  0.0000000  0.0000000  3
   2447   2446   2455   2456     1  0.0000000  0.6508444  3
   2447   2446   2455   2457     1  0.0000000  0.6508444  3
   2448   2446   2455   2464     1  0.0000000  1.0460000  1
   2448   2446   2455   2464     1  0.0000000  0.0000000  3
   2448   2446   2455   2456     1  0.0000000  0.6508444  3
   2448   2446   2455   2457     1  0.0000000  0.6508444  3
   2450   2449   2461   5143     1  0.0000000  1.0460000  1
   2450   2449   2461   5143     1  0.0000000  0.0000000  3
   2450   2449   2461   2462     1  0.0000000  0.6508444  3
   2450   2449   2461   2463     1  0.0000000  0.6508444  3
   2451   2449   2461   5143     1  0.0000000  1.0460000  1
   2451   2449   2461   5143     1  0.0000000  0.0000000  3
   2451   2449   2461   2462     1  0.0000000  0.6508444  3
   2451   2449   2461   2463     1  0.0000000  0.6508444  3
   2453   2452   2458   5112     1  0.0000000  1.0460000  1
   2453   2452   2458   5112     1  0.0000000  0.0000000  3
   2453   2452   2458   2459     1  0.0000000  0.6508444  3
   2453   2452   2458   2460     1  0.0000000  0.6508444  3
   2454   2452   2458   5112     1  0.0000000  1.0460000  1
   2454   2452   2458   5112     1  0.0000000  0.0000000  3
   2454   2452   2458   2459     1  0.0000000  0.6508444  3
   2454   2452   2458   2460     1  0.0000000  0.6508444  3
   2458   5112   5082   5083     1  0.0000000  1.6038667  3
   2458   5112   5082   5084     1  0.0000000  1.6038667  3
   2459   2458   5112   5082     1  0.0000000  1.6038667  3
   2460   2458   5112   5082     1  0.0000000  1.6038667  3
   2461   5143   5113   5114     1  0.0000000  1.6038667  3
   2461   5143   5113   5115     1  0.0000000  1.6038667  3
   2462   2461   5143   5113     1  0.0000000  1.6038667  3
   2463   2461   5143   5113     1  0.0000000  1.6038667  3
   2465   2466   2478   2479     1  0.0000000  0.6508444  3
   2465   2466   2478   2480     1  0.0000000  0.6508444  3
   2465   2469   2481   2482     1  0.0000000  0.6508444  3
   2465   2469   2481   2483     1  0.0000000  0.6508444  3
   2465   2472   2475   2476     1  0.0000000  0.6508444  3
   2465   2472   2475   2477     1  0.0000000  0.6508444  3
   2466   2465   2469   2470     1  0.0000000  1.2552000  3
   2466   2465   2469   2471     1  0.0000000  1.2552000  3
   2466   2465   2472   2473     1  0.0000000  1.2552000  3
   2466   2465   2472   2474     1  0.0000000  1.2552000  3
   2466   2478   2490   2491     1  0.0000000  0.6508444  3
   2466   2478   2490   2492     1  0.0000000  0.6508444  3
   2467   2466   2465   2469     1  0.0000000  1.2552000  3
   2467   2466   2465   2472     1  0.0000000  1.2552000  3
   2467   2466   2478   2490     1  0.0000000  0.6508444  3
   2467   2466   2478   2479     1  0.0000000  0.6508444  3
   2467   2466   2478   2480     1  0.0000000  0.6508444  3
   2468   2466   2465   2469     1  0.0000000  1.2552000  3
   2468   2466   2465   2472     1  0.0000000  1.2552000  3
   2468   2466   2478   2490     1  0.0000000  0.6508444  3
   2468   2466   2478   2479     1  0.0000000  0.6508444  3
   2468   2466   2478   2480     1  0.0000000  0.6508444  3
   2469   2465   2472   2473     1  0.0000000  1.2552000  3
   2469   2465   2472   2474     1  0.0000000  1.2552000  3
   2469   2481   2487   2488     1  0.0000000  0.6508444  3
   2469   2481   2487   2489     1  0.0000000  0.6508444  3
   2470   2469   2465   2472     1  0.0000000  1.2552000  3
   2470   2469   2481   2487     1  0.0000000  0.6508444  3
   2470   2469   2481   2482     1  0.0000000  0.6508444  3
   2470   2469   2481   2483     1  0.0000000  0.6508444  3
   2471   2469   2465   2472     1  0.0000000  1.2552000  3
   2471   2469   2481   2487     1  0.0000000  0.6508444  3
   2471   2469   2481   2482     1  0.0000000  0.6508444  3
   2471   2469   2481   2483     1  0.0000000  0.6508444  3
   2472   2475   2484   2485     1  0.0000000  0.6508444  3
   2472   2475   2484   2486     1  0.0000000  0.6508444  3
   2473   2472   2475   2484     1  0.0000000  0.6508444  3
   2473   2472   2475   2476     1  0.0000000  0.6508444  3
   2473   2472   2475   2477     1  0.0000000  0.6508444  3
   2474   2472   2475   2484     1  0.0000000  0.6508444  3
   2474   2472   2475   2476     1  0.0000000  0.6508444  3
   2474   2472   2475   2477     1  0.0000000  0.6508444  3
   2476   2475   2484   2493     1  0.0000000  1.0460000  1
   2476   2475   2484   2493     1  0.0000000  0.0000000  3
   2476   2475   2484   2485     1  0.0000000  0.6508444  3
   2476   2475   2484   2486     1  0.0000000  0.6508444  3
   2477   2475   2484   2493     1  0.0000000  1.0460000  1
   2477   2475   2484   2493     1  0.0000000  0.0000000  3
   2477   2475   2484   2485     1  0.0000000  0.6508444  3
   2477   2475   2484   2486     1  0.0000000  0.6508444  3
   2479   2478   2490   5205     1  0.0000000  1.0460000  1
   2479   2478   2490   5205     1  0.0000000  0.0000000  3
   2479   2478   2490   2491     1  0.0000000  0.6508444  3
   2479   2478   2490   2492     1  0.0000000  0.6508444  3
   2480   2478   2490   5205     1  0.0000000  1.0460000  1
   2480   2478   2490   5205     1  0.0000000  0.0000000  3
   2480   2478   2490   2491     1  0.0000000  0.6508444  3
   2480   2478   2490   2492     1  0.0000000  0.6508444  3
   2482   2481   2487   5174     1  0.0000000  1.0460000  1
   2482   2481   2487   5174     1  0.0000000  0.0000000  3
   2482   2481   2487   2488     1  0.0000000  0.6508444  3
   2482   2481   2487   2489     1  0.0000000  0.6508444  3
   2483   2481   2487   5174     1  0.0000000  1.0460000  1
   2483   2481   2487   5174     1  0.0000000  0.0000000  3
   2483   2481   2487   2488     1  0.0000000  0.6508444  3
   2483   2481   2487   2489     1  0.0000000  0.6508444  3
   2487   5174   5144   5145     1  0.0000000  1.6038667  3
   2487   5174   5144   5146     1  0.0000000  1.6038667  3
   2488   2487   5174   5144     1  0.0000000  1.6038667  3
   2489   2487   5174   5144     1  0.0000000  1.6038667  3
   2490   5205   5175   5176     1  0.0000000  1.6038667  3
   2490   5205   5175   5177     1  0.0000000  1.6038667  3
   2491   2490   5205   5175     1  0.0000000  1.6038667  3
   2492   2490   5205   5175     1  0.0000000  1.6038667  3
   2494   2495   2507   2508     1  0.0000000  0.6508444  3
   2494   2495   2507   2509     1  0.0000000  0.6508444  3
   2494   2498   2510   2511     1  0.0000000  0.6508444  3
   2494   2498   2510   2512     1  0.0000000  0.6508444  3
   2494   2501   2504   2505     1  0.0000000  0.6508444  3
   2494   2501   2504   2506     1  0.0000000  0.6508444  3
   2495   2494   2498   2499     1  0.0000000  1.2552000  3
   2495   2494   2498   2500     1  0.0000000  1.2552000  3
   2495   2494   2501   2502     1  0.0000000  1.2552000  3
   2495   2494   2501   2503     1  0.0000000  1.2552000  3
   2495   2507   2519   2520     1  0.0000000  0.6508444  3
   2495   2507   2519   2521     1  0.0000000  0.6508444  3
   2496   2495   2494   2498     1  0.0000000  1.2552000  3
   2496   2495   2494   2501     1  0.0000000  1.2552000  3
   2496   2495   2507   2519     1  0.0000000  0.6508444  3
   2496   2495   2507   2508     1  0.0000000  0.6508444  3
   2496   2495   2507   2509     1  0.0000000  0.6508444  3
   2497   2495   2494   2498     1  0.0000000  1.2552000  3
   2497   2495   2494   2501     1  0.0000000  1.2552000  3
   2497   2495   2507   2519     1  0.0000000  0.6508444  3
   2497   2495   2507   2508     1  0.0000000  0.6508444  3
   2497   2495   2507   2509     1  0.0000000  0.6508444  3
   2498   2494   2501   2502     1  0.0000000  1.2552000  3
   2498   2494   2501   2503     1  0.0000000  1.2552000  3
   2498   2510   2516   2517     1  0.0000000  0.6508444  3
   2498   2510   2516   2518     1  0.0000000  0.6508444  3
   2499   2498   2494   2501     1  0.0000000  1.2552000  3
   2499   2498   2510   2516     1  0.0000000  0.6508444  3
   2499   2498   2510   2511     1  0.0000000  0.6508444  3
   2499   2498   2510   2512     1  0.0000000  0.6508444  3
   2500   2498   2494   2501     1  0.0000000  1.2552000  3
   2500   2498   2510   2516     1  0.0000000  0.6508444  3
   2500   2498   2510   2511     1  0.0000000  0.6508444  3
   2500   2498   2510   2512     1  0.0000000  0.6508444  3
   2501   2504   2513   2514     1  0.0000000  0.6508444  3
   2501   2504   2513   2515     1  0.0000000  0.6508444  3
   2502   2501   2504   2513     1  0.0000000  0.6508444  3
   2502   2501   2504   2505     1  0.0000000  0.6508444  3
   2502   2501   2504   2506     1  0.0000000  0.6508444  3
   2503   2501   2504   2513     1  0.0000000  0.6508444  3
   2503   2501   2504   2505     1  0.0000000  0.6508444  3
   2503   2501   2504   2506     1  0.0000000  0.6508444  3
   2505   2504   2513   2522     1  0.0000000  1.0460000  1
   2505   2504   2513   2522     1  0.0000000  0.0000000  3
   2505   2504   2513   2514     1  0.0000000  0.6508444  3
   2505   2504   2513   2515     1  0.0000000  0.6508444  3
   2506   2504   2513   2522     1  0.0000000  1.0460000  1
   2506   2504   2513   2522     1  0.0000000  0.0000000  3
   2506   2504   2513   2514     1  0.0000000  0.6508444  3
   2506   2504   2513   2515     1  0.0000000  0.6508444  3
   2508   2507   2519   5267     1  0.0000000  1.0460000  1
   2508   2507   2519   5267     1  0.0000000  0.0000000  3
   2508   2507   2519   2520     1  0.0000000  0.6508444  3
   2508   2507   2519   2521     1  0.0000000  0.6508444  3
   2509   2507   2519   5267     1  0.0000000  1.0460000  1
   2509   2507   2519   5267     1  0.0000000  0.0000000  3
   2509   2507   2519   2520     1  0.0000000  0.6508444  3
   2509   2507   2519   2521     1  0.0000000  0.6508444  3
   2511   2510   2516   5236     1  0.0000000  1.0460000  1
   2511   2510   2516   5236     1  0.0000000  0.0000000  3
   2511   2510   2516   2517     1  0.0000000  0.6508444  3
   2511   2510   2516   2518     1  0.0000000  0.6508444  3
   2512   2510   2516   5236     1  0.0000000  1.0460000  1
   2512   2510   2516   5236     1  0.0000000  0.0000000  3
   2512   2510   2516   2517     1  0.0000000  0.6508444  3
   2512   2510   2516   2518     1  0.0000000  0.6508444  3
   2516   5236   5206   5207     1  0.0000000  1.6038667  3
   2516   5236   5206   5208     1  0.0000000  1.6038667  3
   2517   2516   5236   5206     1  0.0000000  1.6038667  3
   2518   2516   5236   5206     1  0.0000000  1.6038667  3
   2519   5267   5237   5238     1  0.0000000  1.6038667  3
   2519   5267   5237   5239     1  0.0000000  1.6038667  3
   2520   2519   5267   5237     1  0.0000000  1.6038667  3
   2521   2519   5267   5237     1  0.0000000  1.6038667  3
   2523   2524   2536   2537     1  0.0000000  0.6508444  3
   2523   2524   2536   2538     1  0.0000000  0.6508444  3
   2523   2527   2539   2540     1  0.0000000  0.6508444  3
   2523   2527   2539   2541     1  0.0000000  0.6508444  3
   2523   2530   2533   2534     1  0.0000000  0.6508444  3
   2523   2530   2533   2535     1  0.0000000  0.6508444  3
   2524   2523   2527   2528     1  0.0000000  1.2552000  3
   2524   2523   2527   2529     1  0.0000000  1.2552000  3
   2524   2523   2530   2531     1  0.0000000  1.2552000  3
   2524   2523   2530   2532     1  0.0000000  1.2552000  3
   2524   2536   2548   2549     1  0.0000000  0.6508444  3
   2524   2536   2548   2550     1  0.0000000  0.6508444  3
   2525   2524   2523   2527     1  0.0000000  1.2552000  3
   2525   2524   2523   2530     1  0.0000000  1.2552000  3
   2525   2524   2536   2548     1  0.0000000  0.6508444  3
   2525   2524   2536   2537     1  0.0000000  0.6508444  3
   2525   2524   2536   2538     1  0.0000000  0.6508444  3
   2526   2524   2523   2527     1  0.0000000  1.2552000  3
   2526   2524   2523   2530     1  0.0000000  1.2552000  3
   2526   2524   2536   2548     1  0.0000000  0.6508444  3
   2526   2524   2536   2537     1  0.0000000  0.6508444  3
   2526   2524   2536   2538     1  0.0000000  0.6508444  3
   2527   2523   2530   2531     1  0.0000000  1.2552000  3
   2527   2523   2530   2532     1  0.0000000  1.2552000  3
   2527   2539   2545   2546     1  0.0000000  0.6508444  3
   2527   2539   2545   2547     1  0.0000000  0.6508444  3
   2528   2527   2523   2530     1  0.0000000  1.2552000  3
   2528   2527   2539   2545     1  0.0000000  0.6508444  3
   2528   2527   2539   2540     1  0.0000000  0.6508444  3
   2528   2527   2539   2541     1  0.0000000  0.6508444  3
   2529   2527   2523   2530     1  0.0000000  1.2552000  3
   2529   2527   2539   2545     1  0.0000000  0.6508444  3
   2529   2527   2539   2540     1  0.0000000  0.6508444  3
   2529   2527   2539   2541     1  0.0000000  0.6508444  3
   2530   2533   2542   2543     1  0.0000000  0.6508444  3
   2530   2533   2542   2544     1  0.0000000  0.6508444  3
   2531   2530   2533   2542     1  0.0000000  0.6508444  3
   2531   2530   2533   2534     1  0.0000000  0.6508444  3
   2531   2530   2533   2535     1  0.0000000  0.6508444  3
   2532   2530   2533   2542     1  0.0000000  0.6508444  3
   2532   2530   2533   2534     1  0.0000000  0.6508444  3
   2532   2530   2533   2535     1  0.0000000  0.6508444  3
   2534   2533   2542   2551     1  0.0000000  1.0460000  1
   2534   2533   2542   2551     1  0.0000000  0.0000000  3
   2534   2533   2542   2543     1  0.0000000  0.6508444  3
   2534   2533   2542   2544     1  0.0000000  0.6508444  3
   2535   2533   2542   2551     1  0.0000000  1.0460000  1
   2535   2533   2542   2551     1  0.0000000  0.0000000  3
   2535   2533   2542   2543     1  0.0000000  0.6508444  3
   2535   2533   2542   2544     1  0.0000000  0.6508444  3
   2537   2536   2548   5329     1  0.0000000  1.0460000  1
   2537   2536   2548   5329     1  0.0000000  0.0000000  3
   2537   2536   2548   2549     1  0.0000000  0.6508444  3
   2537   2536   2548   2550     1  0.0000000  0.6508444  3
   2538   2536   2548   5329     1  0.0000000  1.0460000  1
   2538   2536   2548   5329     1  0.0000000  0.0000000  3
   2538   2536   2548   2549     1  0.0000000  0.6508444  3
   2538   2536   2548   2550     1  0.0000000  0.6508444  3
   2540   2539   2545   5298     1  0.0000000  1.0460000  1
   2540   2539   2545   5298     1  0.0000000  0.0000000  3
   2540   2539   2545   2546     1  0.0000000  0.6508444  3
   2540   2539   2545   2547     1  0.0000000  0.6508444  3
   2541   2539   2545   5298     1  0.0000000  1.0460000  1
   2541   2539   2545   5298     1  0.0000000  0.0000000  3
   2541   2539   2545   2546     1  0.0000000  0.6508444  3
   2541   2539   2545   2547     1  0.0000000  0.6508444  3
   2545   5298   5268   5269     1  0.0000000  1.6038667  3
   2545   5298   5268   5270     1  0.0000000  1.6038667  3
   2546   2545   5298   5268     1  0.0000000  1.6038667  3
   2547   2545   5298   5268     1  0.0000000  1.6038667  3
   2548   5329   5299   5300     1  0.0000000  1.6038667  3
   2548   5329   5299   5301     1  0.0000000  1.6038667  3
   2549   2548   5329   5299     1  0.0000000  1.6038667  3
   2550   2548   5329   5299     1  0.0000000  1.6038667  3
   2552   2553   2565   2566     1  0.0000000  0.6508444  3
   2552   2553   2565   2567     1  0.0000000  0.6508444  3
   2552   2556   2568   2569     1  0.0000000  0.6508444  3
   2552   2556   2568   2570     1  0.0000000  0.6508444  3
   2552   2559   2562   2563     1  0.0000000  0.6508444  3
   2552   2559   2562   2564     1  0.0000000  0.6508444  3
   2553   2552   2556   2557     1  0.0000000  1.2552000  3
   2553   2552   2556   2558     1  0.0000000  1.2552000  3
   2553   2552   2559   2560     1  0.0000000  1.2552000  3
   2553   2552   2559   2561     1  0.0000000  1.2552000  3
   2553   2565   2577   2578     1  0.0000000  0.6508444  3
   2553   2565   2577   2579     1  0.0000000  0.6508444  3
   2554   2553   2552   2556     1  0.0000000  1.2552000  3
   2554   2553   2552   2559     1  0.0000000  1.2552000  3
   2554   2553   2565   2577     1  0.0000000  0.6508444  3
   2554   2553   2565   2566     1  0.0000000  0.6508444  3
   2554   2553   2565   2567     1  0.0000000  0.6508444  3
   2555   2553   2552   2556     1  0.0000000  1.2552000  3
   2555   2553   2552   2559     1  0.0000000  1.2552000  3
   2555   2553   2565   2577     1  0.0000000  0.6508444  3
   2555   2553   2565   2566     1  0.0000000  0.6508444  3
   2555   2553   2565   2567     1  0.0000000  0.6508444  3
   2556   2552   2559   2560     1  0.0000000  1.2552000  3
   2556   2552   2559   2561     1  0.0000000  1.2552000  3
   2556   2568   2574   2575     1  0.0000000  0.6508444  3
   2556   2568   2574   2576     1  0.0000000  0.6508444  3
   2557   2556   2552   2559     1  0.0000000  1.2552000  3
   2557   2556   2568   2574     1  0.0000000  0.6508444  3
   2557   2556   2568   2569     1  0.0000000  0.6508444  3
   2557   2556   2568   2570     1  0.0000000  0.6508444  3
   2558   2556   2552   2559     1  0.0000000  1.2552000  3
   2558   2556   2568   2574     1  0.0000000  0.6508444  3
   2558   2556   2568   2569     1  0.0000000  0.6508444  3
   2558   2556   2568   2570     1  0.0000000  0.6508444  3
   2559   2562   2571   2572     1  0.0000000  0.6508444  3
   2559   2562   2571   2573     1  0.0000000  0.6508444  3
   2560   2559   2562   2571     1  0.0000000  0.6508444  3
   2560   2559   2562   2563     1  0.0000000  0.6508444  3
   2560   2559   2562   2564     1  0.0000000  0.6508444  3
   2561   2559   2562   2571     1  0.0000000  0.6508444  3
   2561   2559   2562   2563     1  0.0000000  0.6508444  3
   2561   2559   2562   2564     1  0.0000000  0.6508444  3
   2563   2562   2571   2580     1  0.0000000  1.0460000  1
   2563   2562   2571   2580     1  0.0000000  0.0000000  3
   2563   2562   2571   2572     1  0.0000000  0.6508444  3
   2563   2562   2571   2573     1  0.0000000  0.6508444  3
   2564   2562   2571   2580     1  0.0000000  1.0460000  1
   2564   2562   2571   2580     1  0.0000000  0.0000000  3
   2564   2562   2571   2572     1  0.0000000  0.6508444  3
   2564   2562   2571   2573     1  0.0000000  0.6508444  3
   2566   2565   2577   5391     1  0.0000000  1.0460000  1
   2566   2565   2577   5391     1  0.0000000  0.0000000  3
   2566   2565   2577   2578     1  0.0000000  0.6508444  3
   2566   2565   2577   2579     1  0.0000000  0.6508444  3
   2567   2565   2577   5391     1  0.0000000  1.0460000  1
   2567   2565   2577   5391     1  0.0000000  0.0000000  3
   2567   2565   2577   2578     1  0.0000000  0.6508444  3
   2567   2565   2577   2579     1  0.0000000  0.6508444  3
   2569   2568   2574   5360     1  0.0000000  1.0460000  1
   2569   2568   2574   5360     1  0.0000000  0.0000000  3
   2569   2568   2574   2575     1  0.0000000  0.6508444  3
   2569   2568   2574   2576     1  0.0000000  0.6508444  3
   2570   2568   2574   5360     1  0.0000000  1.0460000  1
   2570   2568   2574   5360     1  0.0000000  0.0000000  3
   2570   2568   2574   2575     1  0.0000000  0.6508444  3
   2570   2568   2574   2576     1  0.0000000  0.6508444  3
   2574   5360   5330   5331     1  0.0000000  1.6038667  3
   2574   5360   5330   5332     1  0.0000000  1.6038667  3
   2575   2574   5360   5330     1  0.0000000  1.6038667  3
   2576   2574   5360   5330     1  0.0000000  1.6038667  3
   2577   5391   5361   5362     1  0.0000000  1.6038667  3
   2577   5391   5361   5363     1  0.0000000  1.6038667  3
   2578   2577   5391   5361     1  0.0000000  1.6038667  3
   2579   2577   5391   5361     1  0.0000000  1.6038667  3
   2581   2582   2594   2595     1  0.0000000  0.6508444  3
   2581   2582   2594   2596     1  0.0000000  0.6508444  3
   2581   2585   2597   2598     1  0.0000000  0.6508444  3
   2581   2585   2597   2599     1  0.0000000  0.6508444  3
   2581   2588   2591   2592     1  0.0000000  0.6508444  3
   2581   2588   2591   2593     1  0.0000000  0.6508444  3
   2582   2581   2585   2586     1  0.0000000  1.2552000  3
   2582   2581   2585   2587     1  0.0000000  1.2552000  3
   2582   2581   2588   2589     1  0.0000000  1.2552000  3
   2582   2581   2588   2590     1  0.0000000  1.2552000  3
   2582   2594   2606   2607     1  0.0000000  0.6508444  3
   2582   2594   2606   2608     1  0.0000000  0.6508444  3
   2583   2582   2581   2585     1  0.0000000  1.2552000  3
   2583   2582   2581   2588     1  0.0000000  1.2552000  3
   2583   2582   2594   2606     1  0.0000000  0.6508444  3
   2583   2582   2594   2595     1  0.0000000  0.6508444  3
   2583   2582   2594   2596     1  0.0000000  0.6508444  3
   2584   2582   2581   2585     1  0.0000000  1.2552000  3
   2584   2582   2581   2588     1  0.0000000  1.2552000  3
   2584   2582   2594   2606     1  0.0000000  0.6508444  3
   2584   2582   2594   2595     1  0.0000000  0.6508444  3
   2584   2582   2594   2596     1  0.0000000  0.6508444  3
   2585   2581   2588   2589     1  0.0000000  1.2552000  3
   2585   2581   2588   2590     1  0.0000000  1.2552000  3
   2585   2597   2603   2604     1  0.0000000  0.6508444  3
   2585   2597   2603   2605     1  0.0000000  0.6508444  3
   2586   2585   2581   2588     1  0.0000000  1.2552000  3
   2586   2585   2597   2603     1  0.0000000  0.6508444  3
   2586   2585   2597   2598     1  0.0000000  0.6508444  3
   2586   2585   2597   2599     1  0.0000000  0.6508444  3
   2587   2585   2581   2588     1  0.0000000  1.2552000  3
   2587   2585   2597   2603     1  0.0000000  0.6508444  3
   2587   2585   2597   2598     1  0.0000000  0.6508444  3
   2587   2585   2597   2599     1  0.0000000  0.6508444  3
   2588   2591   2600   2601     1  0.0000000  0.6508444  3
   2588   2591   2600   2602     1  0.0000000  0.6508444  3
   2589   2588   2591   2600     1  0.0000000  0.6508444  3
   2589   2588   2591   2592     1  0.0000000  0.6508444  3
   2589   2588   2591   2593     1  0.0000000  0.6508444  3
   2590   2588   2591   2600     1  0.0000000  0.6508444  3
   2590   2588   2591   2592     1  0.0000000  0.6508444  3
   2590   2588   2591   2593     1  0.0000000  0.6508444  3
   2592   2591   2600   2609     1  0.0000000  1.0460000  1
   2592   2591   2600   2609     1  0.0000000  0.0000000  3
   2592   2591   2600   2601     1  0.0000000  0.6508444  3
   2592   2591   2600   2602     1  0.0000000  0.6508444  3
   2593   2591   2600   2609     1  0.0000000  1.0460000  1
   2593   2591   2600   2609     1  0.0000000  0.0000000  3
   2593   2591   2600   2601     1  0.0000000  0.6508444  3
   2593   2591   2600   2602     1  0.0000000  0.6508444  3
   2595   2594   2606   5453     1  0.0000000  1.0460000  1
   2595   2594   2606   5453     1  0.0000000  0.0000000  3
   2595   2594   2606   2607     1  0.0000000  0.6508444  3
   2595   2594   2606   2608     1  0.0000000  0.6508444  3
   2596   2594   2606   5453     1  0.0000000  1.0460000  1
   2596   2594   2606   5453     1  0.0000000  0.0000000  3
   2596   2594   2606   2607     1  0.0000000  0.6508444  3
   2596   2594   2606   2608     1  0.0000000  0.6508444  3
   2598   2597   2603   5422     1  0.0000000  1.0460000  1
   2598   2597   2603   5422     1  0.0000000  0.0000000  3
   2598   2597   2603   2604     1  0.0000000  0.6508444  3
   2598   2597   2603   2605     1  0.0000000  0.6508444  3
   2599   2597   2603   5422     1  0.0000000  1.0460000  1
   2599   2597   2603   5422     1  0.0000000  0.0000000  3
   2599   2597   2603   2604     1  0.0000000  0.6508444  3
   2599   2597   2603   2605     1  0.0000000  0.6508444  3
   2603   5422   5392   5393     1  0.0000000  1.6038667  3
   2603   5422   5392   5394     1  0.0000000  1.6038667  3
   2604   2603   5422   5392     1  0.0000000  1.6038667  3
   2605   2603   5422   5392     1  0.0000000  1.6038667  3
   2606   5453   5423   5424     1  0.0000000  1.6038667  3
   2606   5453   5423   5425     1  0.0000000  1.6038667  3
   2607   2606   5453   5423     1  0.0000000  1.6038667  3
   2608   2606   5453   5423     1  0.0000000  1.6038667  3
   2610   2611   2623   2624     1  0.0000000  0.6508444  3
   2610   2611   2623   2625     1  0.0000000  0.6508444  3
   2610   2614   2626   2627     1  0.0000000  0.6508444  3
   2610   2614   2626   2628     1  0.0000000  0.6508444  3
   2610   2617   2620   2621     1  0.0000000  0.6508444  3
   2610   2617   2620   2622     1  0.0000000  0.6508444  3
   2611   2610   2614   2615     1  0.0000000  1.2552000  3
   2611   2610   2614   2616     1  0.0000000  1.2552000  3
   2611   2610   2617   2618     1  0.0000000  1.2552000  3
   2611   2610   2617   2619     1  0.0000000  1.2552000  3
   2611   2623   2635   2636     1  0.0000000  0.6508444  3
   2611   2623   2635   2637     1  0.0000000  0.6508444  3
   2612   2611   2610   2614     1  0.0000000  1.2552000  3
   2612   2611   2610   2617     1  0.0000000  1.2552000  3
   2612   2611   2623   2635     1  0.0000000  0.6508444  3
   2612   2611   2623   2624     1  0.0000000  0.6508444  3
   2612   2611   2623   2625     1  0.0000000  0.6508444  3
   2613   2611   2610   2614     1  0.0000000  1.2552000  3
   2613   2611   2610   2617     1  0.0000000  1.2552000  3
   2613   2611   2623   2635     1  0.0000000  0.6508444  3
   2613   2611   2623   2624     1  0.0000000  0.6508444  3
   2613   2611   2623   2625     1  0.0000000  0.6508444  3
   2614   2610   2617   2618     1  0.0000000  1.2552000  3
   2614   2610   2617   2619     1  0.0000000  1.2552000  3
   2614   2626   2632   2633     1  0.0000000  0.6508444  3
   2614   2626   2632   2634     1  0.0000000  0.6508444  3
   2615   2614   2610   2617     1  0.0000000  1.2552000  3
   2615   2614   2626   2632     1  0.0000000  0.6508444  3
   2615   2614   2626   2627     1  0.0000000  0.6508444  3
   2615   2614   2626   2628     1  0.0000000  0.6508444  3
   2616   2614   2610   2617     1  0.0000000  1.2552000  3
   2616   2614   2626   2632     1  0.0000000  0.6508444  3
   2616   2614   2626   2627     1  0.0000000  0.6508444  3
   2616   2614   2626   2628     1  0.0000000  0.6508444  3
   2617   2620   2629   2630     1  0.0000000  0.6508444  3
   2617   2620   2629   2631     1  0.0000000  0.6508444  3
   2618   2617   2620   2629     1  0.0000000  0.6508444  3
   2618   2617   2620   2621     1  0.0000000  0.6508444  3
   2618   2617   2620   2622     1  0.0000000  0.6508444  3
   2619   2617   2620   2629     1  0.0000000  0.6508444  3
   2619   2617   2620   2621     1  0.0000000  0.6508444  3
   2619   2617   2620   2622     1  0.0000000  0.6508444  3
   2621   2620   2629   2638     1  0.0000000  1.0460000  1
   2621   2620   2629   2638     1  0.0000000  0.0000000  3
   2621   2620   2629   2630     1  0.0000000  0.6508444  3
   2621   2620   2629   2631     1  0.0000000  0.6508444  3
   2622   2620   2629   2638     1  0.0000000  1.0460000  1
   2622   2620   2629   2638     1  0.0000000  0.0000000  3
   2622   2620   2629   2630     1  0.0000000  0.6508444  3
   2622   2620   2629   2631     1  0.0000000  0.6508444  3
   2624   2623   2635   5515     1  0.0000000  1.0460000  1
   2624   2623   2635   5515     1  0.0000000  0.0000000  3
   2624   2623   2635   2636     1  0.0000000  0.6508444  3
   2624   2623   2635   2637     1  0.0000000  0.6508444  3
   2625   2623   2635   5515     1  0.0000000  1.0460000  1
   2625   2623   2635   5515     1  0.0000000  0.0000000  3
   2625   2623   2635   2636     1  0.0000000  0.6508444  3
   2625   2623   2635   2637     1  0.0000000  0.6508444  3
   2627   2626   2632   5484     1  0.0000000  1.0460000  1
   2627   2626   2632   5484     1  0.0000000  0.0000000  3
   2627   2626   2632   2633     1  0.0000000  0.6508444  3
   2627   2626   2632   2634     1  0.0000000  0.6508444  3
   2628   2626   2632   5484     1  0.0000000  1.0460000  1
   2628   2626   2632   5484     1  0.0000000  0.0000000  3
   2628   2626   2632   2633     1  0.0000000  0.6508444  3
   2628   2626   2632   2634     1  0.0000000  0.6508444  3
   2632   5484   5454   5455     1  0.0000000  1.6038667  3
   2632   5484   5454   5456     1  0.0000000  1.6038667  3
   2633   2632   5484   5454     1  0.0000000  1.6038667  3
   2634   2632   5484   5454     1  0.0000000  1.6038667  3
   2635   5515   5485   5486     1  0.0000000  1.6038667  3
   2635   5515   5485   5487     1  0.0000000  1.6038667  3
   2636   2635   5515   5485     1  0.0000000  1.6038667  3
   2637   2635   5515   5485     1  0.0000000  1.6038667  3
   2639   2640   2652   2653     1  0.0000000  0.6508444  3
   2639   2640   2652   2654     1  0.0000000  0.6508444  3
   2639   2643   2655   2656     1  0.0000000  0.6508444  3
   2639   2643   2655   2657     1  0.0000000  0.6508444  3
   2639   2646   2649   2650     1  0.0000000  0.6508444  3
   2639   2646   2649   2651     1  0.0000000  0.6508444  3
   2640   2639   2643   2644     1  0.0000000  1.2552000  3
   2640   2639   2643   2645     1  0.0000000  1.2552000  3
   2640   2639   2646   2647     1  0.0000000  1.2552000  3
   2640   2639   2646   2648     1  0.0000000  1.2552000  3
   2640   2652   2664   2665     1  0.0000000  0.6508444  3
   2640   2652   2664   2666     1  0.0000000  0.6508444  3
   2641   2640   2639   2643     1  0.0000000  1.2552000  3
   2641   2640   2639   2646     1  0.0000000  1.2552000  3
   2641   2640   2652   2664     1  0.0000000  0.6508444  3
   2641   2640   2652   2653     1  0.0000000  0.6508444  3
   2641   2640   2652   2654     1  0.0000000  0.6508444  3
   2642   2640   2639   2643     1  0.0000000  1.2552000  3
   2642   2640   2639   2646     1  0.0000000  1.2552000  3
   2642   2640   2652   2664     1  0.0000000  0.6508444  3
   2642   2640   2652   2653     1  0.0000000  0.6508444  3
   2642   2640   2652   2654     1  0.0000000  0.6508444  3
   2643   2639   2646   2647     1  0.0000000  1.2552000  3
   2643   2639   2646   2648     1  0.0000000  1.2552000  3
   2643   2655   2661   2662     1  0.0000000  0.6508444  3
   2643   2655   2661   2663     1  0.0000000  0.6508444  3
   2644   2643   2639   2646     1  0.0000000  1.2552000  3
   2644   2643   2655   2661     1  0.0000000  0.6508444  3
   2644   2643   2655   2656     1  0.0000000  0.6508444  3
   2644   2643   2655   2657     1  0.0000000  0.6508444  3
   2645   2643   2639   2646     1  0.0000000  1.2552000  3
   2645   2643   2655   2661     1  0.0000000  0.6508444  3
   2645   2643   2655   2656     1  0.0000000  0.6508444  3
   2645   2643   2655   2657     1  0.0000000  0.6508444  3
   2646   2649   2658   2659     1  0.0000000  0.6508444  3
   2646   2649   2658   2660     1  0.0000000  0.6508444  3
   2647   2646   2649   2658     1  0.0000000  0.6508444  3
   2647   2646   2649   2650     1  0.0000000  0.6508444  3
   2647   2646   2649   2651     1  0.0000000  0.6508444  3
   2648   2646   2649   2658     1  0.0000000  0.6508444  3
   2648   2646   2649   2650     1  0.0000000  0.6508444  3
   2648   2646   2649   2651     1  0.0000000  0.6508444  3
   2650   2649   2658   2667     1  0.0000000  1.0460000  1
   2650   2649   2658   2667     1  0.0000000  0.0000000  3
   2650   2649   2658   2659     1  0.0000000  0.6508444  3
   2650   2649   2658   2660     1  0.0000000  0.6508444  3
   2651   2649   2658   2667     1  0.0000000  1.0460000  1
   2651   2649   2658   2667     1  0.0000000  0.0000000  3
   2651   2649   2658   2659     1  0.0000000  0.6508444  3
   2651   2649   2658   2660     1  0.0000000  0.6508444  3
   2653   2652   2664   5577     1  0.0000000  1.0460000  1
   2653   2652   2664   5577     1  0.0000000  0.0000000  3
   2653   2652   2664   2665     1  0.0000000  0.6508444  3
   2653   2652   2664   2666     1  0.0000000  0.6508444  3
   2654   2652   2664   5577     1  0.0000000  1.0460000  1
   2654   2652   2664   5577     1  0.0000000  0.0000000  3
   2654   2652   2664   2665     1  0.0000000  0.6508444  3
   2654   2652   2664   2666     1  0.0000000  0.6508444  3
   2656   2655   2661   5546     1  0.0000000  1.0460000  1
   2656   2655   2661   5546     1  0.0000000  0.0000000  3
   2656   2655   2661   2662     1  0.0000000  0.6508444  3
   2656   2655   2661   2663     1  0.0000000  0.6508444  3
   2657   2655   2661   5546     1  0.0000000  1.0460000  1
   2657   2655   2661   5546     1  0.0000000  0.0000000  3
   2657   2655   2661   2662     1  0.0000000  0.6508444  3
   2657   2655   2661   2663     1  0.0000000  0.6508444  3
   2661   5546   5516   5517     1  0.0000000  1.6038667  3
   2661   5546   5516   5518     1  0.0000000  1.6038667  3
   2662   2661   5546   5516     1  0.0000000  1.6038667  3
   2663   2661   5546   5516     1  0.0000000  1.6038667  3
   2664   5577   5547   5548     1  0.0000000  1.6038667  3
   2664   5577   5547   5549     1  0.0000000  1.6038667  3
   2665   2664   5577   5547     1  0.0000000  1.6038667  3
   2666   2664   5577   5547     1  0.0000000  1.6038667  3
   2668   2669   2681   2682     1  0.0000000  0.6508444  3
   2668   2669   2681   2683     1  0.0000000  0.6508444  3
   2668   2672   2684   2685     1  0.0000000  0.6508444  3
   2668   2672   2684   2686     1  0.0000000  0.6508444  3
   2668   2675   2678   2679     1  0.0000000  0.6508444  3
   2668   2675   2678   2680     1  0.0000000  0.6508444  3
   2669   2668   2672   2673     1  0.0000000  1.2552000  3
   2669   2668   2672   2674     1  0.0000000  1.2552000  3
   2669   2668   2675   2676     1  0.0000000  1.2552000  3
   2669   2668   2675   2677     1  0.0000000  1.2552000  3
   2669   2681   2693   2694     1  0.0000000  0.6508444  3
   2669   2681   2693   2695     1  0.0000000  0.6508444  3
   2670   2669   2668   2672     1  0.0000000  1.2552000  3
   2670   2669   2668   2675     1  0.0000000  1.2552000  3
   2670   2669   2681   2693     1  0.0000000  0.6508444  3
   2670   2669   2681   2682     1  0.0000000  0.6508444  3
   2670   2669   2681   2683     1  0.0000000  0.6508444  3
   2671   2669   2668   2672     1  0.0000000  1.2552000  3
   2671   2669   2668   2675     1  0.0000000  1.2552000  3
   2671   2669   2681   2693     1  0.0000000  0.6508444  3
   2671   2669   2681   2682     1  0.0000000  0.6508444  3
   2671   2669   2681   2683     1  0.0000000  0.6508444  3
   2672   2668   2675   2676     1  0.0000000  1.2552000  3
   2672   2668   2675   2677     1  0.0000000  1.2552000  3
   2672   2684   2690   2691     1  0.0000000  0.6508444  3
   2672   2684   2690   2692     1  0.0000000  0.6508444  3
   2673   2672   2668   2675     1  0.0000000  1.2552000  3
   2673   2672   2684   2690     1  0.0000000  0.6508444  3
   2673   2672   2684   2685     1  0.0000000  0.6508444  3
   2673   2672   2684   2686     1  0.0000000  0.6508444  3
   2674   2672   2668   2675     1  0.0000000  1.2552000  3
   2674   2672   2684   2690     1  0.0000000  0.6508444  3
   2674   2672   2684   2685     1  0.0000000  0.6508444  3
   2674   2672   2684   2686     1  0.0000000  0.6508444  3
   2675   2678   2687   2688     1  0.0000000  0.6508444  3
   2675   2678   2687   2689     1  0.0000000  0.6508444  3
   2676   2675   2678   2687     1  0.0000000  0.6508444  3
   2676   2675   2678   2679     1  0.0000000  0.6508444  3
   2676   2675   2678   2680     1  0.0000000  0.6508444  3
   2677   2675   2678   2687     1  0.0000000  0.6508444  3
   2677   2675   2678   2679     1  0.0000000  0.6508444  3
   2677   2675   2678   2680     1  0.0000000  0.6508444  3
   2679   2678   2687   2696     1  0.0000000  1.0460000  1
   2679   2678   2687   2696     1  0.0000000  0.0000000  3
   2679   2678   2687   2688     1  0.0000000  0.6508444  3
   2679   2678   2687   2689     1  0.0000000  0.6508444  3
   2680   2678   2687   2696     1  0.0000000  1.0460000  1
   2680   2678   2687   2696     1  0.0000000  0.0000000  3
   2680   2678   2687   2688     1  0.0000000  0.6508444  3
   2680   2678   2687   2689     1  0.0000000  0.6508444  3
   2682   2681   2693   5639     1  0.0000000  1.0460000  1
   2682   2681   2693   5639     1  0.0000000  0.0000000  3
   2682   2681   2693   2694     1  0.0000000  0.6508444  3
   2682   2681   2693   2695     1  0.0000000  0.6508444  3
   2683   2681   2693   5639     1  0.0000000  1.0460000  1
   2683   2681   2693   5639     1  0.0000000  0.0000000  3
   2683   2681   2693   2694     1  0.0000000  0.6508444  3
   2683   2681   2693   2695     1  0.0000000  0.6508444  3
   2685   2684   2690   5608     1  0.0000000  1.0460000  1
   2685   2684   2690   5608     1  0.0000000  0.0000000  3
   2685   2684   2690   2691     1  0.0000000  0.6508444  3
   2685   2684   2690   2692     1  0.0000000  0.6508444  3
   2686   2684   2690   5608     1  0.0000000  1.0460000  1
   2686   2684   2690   5608     1  0.0000000  0.0000000  3
   2686   2684   2690   2691     1  0.0000000  0.6508444  3
   2686   2684   2690   2692     1  0.0000000  0.6508444  3
   2690   5608   5578   5579     1  0.0000000  1.6038667  3
   2690   5608   5578   5580     1  0.0000000  1.6038667  3
   2691   2690   5608   5578     1  0.0000000  1.6038667  3
   2692   2690   5608   5578     1  0.0000000  1.6038667  3
   2693   5639   5609   5610     1  0.0000000  1.6038667  3
   2693   5639   5609   5611     1  0.0000000  1.6038667  3
   2694   2693   5639   5609     1  0.0000000  1.6038667  3
   2695   2693   5639   5609     1  0.0000000  1.6038667  3
   2697   2698   2710   2711     1  0.0000000  0.6508444  3
   2697   2698   2710   2712     1  0.0000000  0.6508444  3
   2697   2701   2713   2714     1  0.0000000  0.6508444  3
   2697   2701   2713   2715     1  0.0000000  0.6508444  3
   2697   2704   2707   2708     1  0.0000000  0.6508444  3
   2697   2704   2707   2709     1  0.0000000  0.6508444  3
   2698   2697   2701   2702     1  0.0000000  1.2552000  3
   2698   2697   2701   2703     1  0.0000000  1.2552000  3
   2698   2697   2704   2705     1  0.0000000  1.2552000  3
   2698   2697   2704   2706     1  0.0000000  1.2552000  3
   2698   2710   2722   2723     1  0.0000000  0.6508444  3
   2698   2710   2722   2724     1  0.0000000  0.6508444  3
   2699   2698   2697   2701     1  0.0000000  1.2552000  3
   2699   2698   2697   2704     1  0.0000000  1.2552000  3
   2699   2698   2710   2722     1  0.0000000  0.6508444  3
   2699   2698   2710   2711     1  0.0000000  0.6508444  3
   2699   2698   2710   2712     1  0.0000000  0.6508444  3
   2700   2698   2697   2701     1  0.0000000  1.2552000  3
   2700   2698   2697   2704     1  0.0000000  1.2552000  3
   2700   2698   2710   2722     1  0.0000000  0.6508444  3
   2700   2698   2710   2711     1  0.0000000  0.6508444  3
   2700   2698   2710   2712     1  0.0000000  0.6508444  3
   2701   2697   2704   2705     1  0.0000000  1.2552000  3
   2701   2697   2704   2706     1  0.0000000  1.2552000  3
   2701   2713   2719   2720     1  0.0000000  0.6508444  3
   2701   2713   2719   2721     1  0.0000000  0.6508444  3
   2702   2701   2697   2704     1  0.0000000  1.2552000  3
   2702   2701   2713   2719     1  0.0000000  0.6508444  3
   2702   2701   2713   2714     1  0.0000000  0.6508444  3
   2702   2701   2713   2715     1  0.0000000  0.6508444  3
   2703   2701   2697   2704     1  0.0000000  1.2552000  3
   2703   2701   2713   2719     1  0.0000000  0.6508444  3
   2703   2701   2713   2714     1  0.0000000  0.6508444  3
   2703   2701   2713   2715     1  0.0000000  0.6508444  3
   2704   2707   2716   2717     1  0.0000000  0.6508444  3
   2704   2707   2716   2718     1  0.0000000  0.6508444  3
   2705   2704   2707   2716     1  0.0000000  0.6508444  3
   2705   2704   2707   2708     1  0.0000000  0.6508444  3
   2705   2704   2707   2709     1  0.0000000  0.6508444  3
   2706   2704   2707   2716     1  0.0000000  0.6508444  3
   2706   2704   2707   2708     1  0.0000000  0.6508444  3
   2706   2704   2707   2709     1  0.0000000  0.6508444  3
   2708   2707   2716   2725     1  0.0000000  1.0460000  1
   2708   2707   2716   2725     1  0.0000000  0.0000000  3
   2708   2707   2716   2717     1  0.0000000  0.6508444  3
   2708   2707   2716   2718     1  0.0000000  0.6508444  3
   2709   2707   2716   2725     1  0.0000000  1.0460000  1
   2709   2707   2716   2725     1  0.0000000  0.0000000  3
   2709   2707   2716   2717     1  0.0000000  0.6508444  3
   2709   2707   2716   2718     1  0.0000000  0.6508444  3
   2711   2710   2722   5701     1  0.0000000  1.0460000  1
   2711   2710   2722   5701     1  0.0000000  0.0000000  3
   2711   2710   2722   2723     1  0.0000000  0.6508444  3
   2711   2710   2722   2724     1  0.0000000  0.6508444  3
   2712   2710   2722   5701     1  0.0000000  1.0460000  1
   2712   2710   2722   5701     1  0.0000000  0.0000000  3
   2712   2710   2722   2723     1  0.0000000  0.6508444  3
   2712   2710   2722   2724     1  0.0000000  0.6508444  3
   2714   2713   2719   5670     1  0.0000000  1.0460000  1
   2714   2713   2719   5670     1  0.0000000  0.0000000  3
   2714   2713   2719   2720     1  0.0000000  0.6508444  3
   2714   2713   2719   2721     1  0.0000000  0.6508444  3
   2715   2713   2719   5670     1  0.0000000  1.0460000  1
   2715   2713   2719   5670     1  0.0000000  0.0000000  3
   2715   2713   2719   2720     1  0.0000000  0.6508444  3
   2715   2713   2719   2721     1  0.0000000  0.6508444  3
   2719   5670   5640   5641     1  0.0000000  1.6038667  3
   2719   5670   5640   5642     1  0.0000000  1.6038667  3
   2720   2719   5670   5640     1  0.0000000  1.6038667  3
   2721   2719   5670   5640     1  0.0000000  1.6038667  3
   2722   5701   5671   5672     1  0.0000000  1.6038667  3
   2722   5701   5671   5673     1  0.0000000  1.6038667  3
   2723   2722   5701   5671     1  0.0000000  1.6038667  3
   2724   2722   5701   5671     1  0.0000000  1.6038667  3
   2726   2729   2732   2733     1  0.0000000  0.6508444  3
   2726   2729   2732   2734     1  0.0000000  0.6508444  3
   2727   2726   2729   2732     1  0.0000000  0.6508444  3
   2727   2726   2729   2730     1  0.0000000  0.6508444  3
   2727   2726   2729   2731     1  0.0000000  0.6508444  3
   2728   2726   2729   2732     1  0.0000000  0.6508444  3
   2728   2726   2729   2730     1  0.0000000  0.6508444  3
   2728   2726   2729   2731     1  0.0000000  0.6508444  3
   2730   2729   2726   2756     1  0.0000000  1.0460000  1
   2730   2729   2726   2756     1  0.0000000  0.0000000  3
   2730   2729   2732   2735     1  0.0000000  0.6508444  3
   2730   2729   2732   2733     1  0.0000000  0.6508444  3
   2730   2729   2732   2734     1  0.0000000  0.6508444  3
   2731   2729   2726   2756     1  0.0000000  1.0460000  1
   2731   2729   2726   2756     1  0.0000000  0.0000000  3
   2731   2729   2732   2735     1  0.0000000  0.6508444  3
   2731   2729   2732   2733     1  0.0000000  0.6508444  3
   2731   2729   2732   2734     1  0.0000000  0.6508444  3
   2732   2735   2736   2737     1  0.0000000  1.2552000  3
   2732   2735   2736   2738     1  0.0000000  1.2552000  3
   2732   2735   2746   2747     1  0.0000000  1.2552000  3
   2732   2735   2746   2748     1  0.0000000  1.2552000  3
   2733   2732   2735   2736     1  0.0000000  1.2552000  3
   2733   2732   2735   2746     1  0.0000000  1.2552000  3
   2734   2732   2735   2736     1  0.0000000  1.2552000  3
   2734   2732   2735   2746     1  0.0000000  1.2552000  3
   2735   2736   2739   2740     1  0.0000000  0.6508444  3
   2735   2736   2739   2741     1  0.0000000  0.6508444  3
   2735   2746   2749   2750     1  0.0000000  0.6508444  3
   2735   2746   2749   2751     1  0.0000000  0.6508444  3
   2736   2735   2746   2747     1  0.0000000  1.2552000  3
   2736   2735   2746   2748     1  0.0000000  1.2552000  3
   2737   2736   2735   2746     1  0.0000000  1.2552000  3
   2737   2736   2739   2742     1  0.0000000  0.6508444  3
   2737   2736   2739   2740     1  0.0000000  0.6508444  3
   2737   2736   2739   2741     1  0.0000000  0.6508444  3
   2738   2736   2735   2746     1  0.0000000  1.2552000  3
   2738   2736   2739   2742     1  0.0000000  0.6508444  3
   2738   2736   2739   2740     1  0.0000000  0.6508444  3
   2738   2736   2739   2741     1  0.0000000  0.6508444  3
   2739   2742   2744   2745     1  180.0000771  9.6232000  2
   2740   2739   2742   2743     1  0.0000000  3.3472000  1
   2740   2739   2742   2743     1  0.0000000  0.0000000  2
   2740   2739   2742   2743     1  180.0000771  0.3347200  3
   2740   2739   2742   2744     1  180.0000771  0.0000000  2
   2741   2739   2742   2743     1  0.0000000  3.3472000  1
   2741   2739   2742   2743     1  0.0000000  0.0000000  2
   2741   2739   2742   2743     1  180.0000771  0.3347200  3
   2741   2739   2742   2744     1  180.0000771  0.0000000  2
   2743   2742   2744   2745     1  0.0000000  7.9496000  1
   2743   2742   2744   2745     1  180.0000771  9.6232000  2
   2747   2746   2749   2752     1  0.0000000  0.6508444  3
   2747   2746   2749   2750     1  0.0000000  0.6508444  3
   2747   2746   2749   2751     1  0.0000000  0.6508444  3
   2748   2746   2749   2752     1  0.0000000  0.6508444  3
   2748   2746   2749   2750     1  0.0000000  0.6508444  3
   2748   2746   2749   2751     1  0.0000000  0.6508444  3
   2749   2752   2754   2755     1  180.0000771  9.6232000  2
   2750   2749   2752   2753     1  0.0000000  3.3472000  1
   2750   2749   2752   2753     1  0.0000000  0.0000000  2
   2750   2749   2752   2753     1  180.0000771  0.3347200  3
   2750   2749   2752   2754     1  180.0000771  0.0000000  2
   2751   2749   2752   2753     1  0.0000000  3.3472000  1
   2751   2749   2752   2753     1  0.0000000  0.0000000  2
   2751   2749   2752   2753     1  180.0000771  0.3347200  3
   2751   2749   2752   2754     1  180.0000771  0.0000000  2
   2753   2752   2754   2755     1  0.0000000  7.9496000  1
   2753   2752   2754   2755     1  180.0000771  9.6232000  2
   2757   2760   2763   2764     1  0.0000000  0.6508444  3
   2757   2760   2763   2765     1  0.0000000  0.6508444  3
   2758   2757   2760   2763     1  0.0000000  0.6508444  3
   2758   2757   2760   2761     1  0.0000000  0.6508444  3
   2758   2757   2760   2762     1  0.0000000  0.6508444  3
   2759   2757   2760   2763     1  0.0000000  0.6508444  3
   2759   2757   2760   2761     1  0.0000000  0.6508444  3
   2759   2757   2760   2762     1  0.0000000  0.6508444  3
   2761   2760   2763   2766     1  0.0000000  0.6508444  3
   2761   2760   2763   2764     1  0.0000000  0.6508444  3
   2761   2760   2763   2765     1  0.0000000  0.6508444  3
   2761   2760   2757   2787     1  0.0000000  1.0460000  1
   2761   2760   2757   2787     1  0.0000000  0.0000000  3
   2762   2760   2763   2766     1  0.0000000  0.6508444  3
   2762   2760   2763   2764     1  0.0000000  0.6508444  3
   2762   2760   2763   2765     1  0.0000000  0.6508444  3
   2762   2760   2757   2787     1  0.0000000  1.0460000  1
   2762   2760   2757   2787     1  0.0000000  0.0000000  3
   2763   2766   2767   2768     1  0.0000000  1.2552000  3
   2763   2766   2767   2769     1  0.0000000  1.2552000  3
   2763   2766   2777   2778     1  0.0000000  1.2552000  3
   2763   2766   2777   2779     1  0.0000000  1.2552000  3
   2764   2763   2766   2767     1  0.0000000  1.2552000  3
   2764   2763   2766   2777     1  0.0000000  1.2552000  3
   2765   2763   2766   2767     1  0.0000000  1.2552000  3
   2765   2763   2766   2777     1  0.0000000  1.2552000  3
   2766   2767   2770   2771     1  0.0000000  0.6508444  3
   2766   2767   2770   2772     1  0.0000000  0.6508444  3
   2766   2777   2780   2781     1  0.0000000  0.6508444  3
   2766   2777   2780   2782     1  0.0000000  0.6508444  3
   2767   2766   2777   2778     1  0.0000000  1.2552000  3
   2767   2766   2777   2779     1  0.0000000  1.2552000  3
   2768   2767   2770   2773     1  0.0000000  0.6508444  3
   2768   2767   2770   2771     1  0.0000000  0.6508444  3
   2768   2767   2770   2772     1  0.0000000  0.6508444  3
   2768   2767   2766   2777     1  0.0000000  1.2552000  3
   2769   2767   2770   2773     1  0.0000000  0.6508444  3
   2769   2767   2770   2771     1  0.0000000  0.6508444  3
   2769   2767   2770   2772     1  0.0000000  0.6508444  3
   2769   2767   2766   2777     1  0.0000000  1.2552000  3
   2770   2773   2775   2776     1  180.0000771  9.6232000  2
   2771   2770   2773   2774     1  0.0000000  3.3472000  1
   2771   2770   2773   2774     1  0.0000000  0.0000000  2
   2771   2770   2773   2774     1  180.0000771  0.3347200  3
   2771   2770   2773   2775     1  180.0000771  0.0000000  2
   2772   2770   2773   2774     1  0.0000000  3.3472000  1
   2772   2770   2773   2774     1  0.0000000  0.0000000  2
   2772   2770   2773   2774     1  180.0000771  0.3347200  3
   2772   2770   2773   2775     1  180.0000771  0.0000000  2
   2774   2773   2775   2776     1  0.0000000  7.9496000  1
   2774   2773   2775   2776     1  180.0000771  9.6232000  2
   2778   2777   2780   2783     1  0.0000000  0.6508444  3
   2778   2777   2780   2781     1  0.0000000  0.6508444  3
   2778   2777   2780   2782     1  0.0000000  0.6508444  3
   2779   2777   2780   2783     1  0.0000000  0.6508444  3
   2779   2777   2780   2781     1  0.0000000  0.6508444  3
   2779   2777   2780   2782     1  0.0000000  0.6508444  3
   2780   2783   2785   2786     1  180.0000771  9.6232000  2
   2781   2780   2783   2784     1  0.0000000  3.3472000  1
   2781   2780   2783   2784     1  0.0000000  0.0000000  2
   2781   2780   2783   2784     1  180.0000771  0.3347200  3
   2781   2780   2783   2785     1  180.0000771  0.0000000  2
   2782   2780   2783   2784     1  0.0000000  3.3472000  1
   2782   2780   2783   2784     1  0.0000000  0.0000000  2
   2782   2780   2783   2784     1  180.0000771  0.3347200  3
   2782   2780   2783   2785     1  180.0000771  0.0000000  2
   2784   2783   2785   2786     1  0.0000000  7.9496000  1
   2784   2783   2785   2786     1  180.0000771  9.6232000  2
   2788   2791   2794   2795     1  0.0000000  0.6508444  3
   2788   2791   2794   2796     1  0.0000000  0.6508444  3
   2789   2788   2791   2794     1  0.0000000  0.6508444  3
   2789   2788   2791   2792     1  0.0000000  0.6508444  3
   2789   2788   2791   2793     1  0.0000000  0.6508444  3
   2790   2788   2791   2794     1  0.0000000  0.6508444  3
   2790   2788   2791   2792     1  0.0000000  0.6508444  3
   2790   2788   2791   2793     1  0.0000000  0.6508444  3
   2792   2791   2788   2818     1  0.0000000  1.0460000  1
   2792   2791   2788   2818     1  0.0000000  0.0000000  3
   2792   2791   2794   2797     1  0.0000000  0.6508444  3
   2792   2791   2794   2795     1  0.0000000  0.6508444  3
   2792   2791   2794   2796     1  0.0000000  0.6508444  3
   2793   2791   2788   2818     1  0.0000000  1.0460000  1
   2793   2791   2788   2818     1  0.0000000  0.0000000  3
   2793   2791   2794   2797     1  0.0000000  0.6508444  3
   2793   2791   2794   2795     1  0.0000000  0.6508444  3
   2793   2791   2794   2796     1  0.0000000  0.6508444  3
   2794   2797   2798   2799     1  0.0000000  1.2552000  3
   2794   2797   2798   2800     1  0.0000000  1.2552000  3
   2794   2797   2808   2809     1  0.0000000  1.2552000  3
   2794   2797   2808   2810     1  0.0000000  1.2552000  3
   2795   2794   2797   2798     1  0.0000000  1.2552000  3
   2795   2794   2797   2808     1  0.0000000  1.2552000  3
   2796   2794   2797   2798     1  0.0000000  1.2552000  3
   2796   2794   2797   2808     1  0.0000000  1.2552000  3
   2797   2798   2801   2802     1  0.0000000  0.6508444  3
   2797   2798   2801   2803     1  0.0000000  0.6508444  3
   2797   2808   2811   2812     1  0.0000000  0.6508444  3
   2797   2808   2811   2813     1  0.0000000  0.6508444  3
   2798   2797   2808   2809     1  0.0000000  1.2552000  3
   2798   2797   2808   2810     1  0.0000000  1.2552000  3
   2799   2798   2797   2808     1  0.0000000  1.2552000  3
   2799   2798   2801   2804     1  0.0000000  0.6508444  3
   2799   2798   2801   2802     1  0.0000000  0.6508444  3
   2799   2798   2801   2803     1  0.0000000  0.6508444  3
   2800   2798   2797   2808     1  0.0000000  1.2552000  3
   2800   2798   2801   2804     1  0.0000000  0.6508444  3
   2800   2798   2801   2802     1  0.0000000  0.6508444  3
   2800   2798   2801   2803     1  0.0000000  0.6508444  3
   2801   2804   2806   2807     1  180.0000771  9.6232000  2
   2802   2801   2804   2805     1  0.0000000  3.3472000  1
   2802   2801   2804   2805     1  0.0000000  0.0000000  2
   2802   2801   2804   2805     1  180.0000771  0.3347200  3
   2802   2801   2804   2806     1  180.0000771  0.0000000  2
   2803   2801   2804   2805     1  0.0000000  3.3472000  1
   2803   2801   2804   2805     1  0.0000000  0.0000000  2
   2803   2801   2804   2805     1  180.0000771  0.3347200  3
   2803   2801   2804   2806     1  180.0000771  0.0000000  2
   2805   2804   2806   2807     1  0.0000000  7.9496000  1
   2805   2804   2806   2807     1  180.0000771  9.6232000  2
   2809   2808   2811   2814     1  0.0000000  0.6508444  3
   2809   2808   2811   2812     1  0.0000000  0.6508444  3
   2809   2808   2811   2813     1  0.0000000  0.6508444  3
   2810   2808   2811   2814     1  0.0000000  0.6508444  3
   2810   2808   2811   2812     1  0.0000000  0.6508444  3
   2810   2808   2811   2813     1  0.0000000  0.6508444  3
   2811   2814   2816   2817     1  180.0000771  9.6232000  2
   2812   2811   2814   2815     1  0.0000000  3.3472000  1
   2812   2811   2814   2815     1  0.0000000  0.0000000  2
   2812   2811   2814   2815     1  180.0000771  0.3347200  3
   2812   2811   2814   2816     1  180.0000771  0.0000000  2
   2813   2811   2814   2815     1  0.0000000  3.3472000  1
   2813   2811   2814   2815     1  0.0000000  0.0000000  2
   2813   2811   2814   2815     1  180.0000771  0.3347200  3
   2813   2811   2814   2816     1  180.0000771  0.0000000  2
   2815   2814   2816   2817     1  0.0000000  7.9496000  1
   2815   2814   2816   2817     1  180.0000771  9.6232000  2
   2819   2822   2825   2826     1  0.0000000  0.6508444  3
   2819   2822   2825   2827     1  0.0000000  0.6508444  3
   2820   2819   2822   2825     1  0.0000000  0.6508444  3
   2820   2819   2822   2823     1  0.0000000  0.6508444  3
   2820   2819   2822   2824     1  0.0000000  0.6508444  3
   2821   2819   2822   2825     1  0.0000000  0.6508444  3
   2821   2819   2822   2823     1  0.0000000  0.6508444  3
   2821   2819   2822   2824     1  0.0000000  0.6508444  3
   2823   2822   2825   2828     1  0.0000000  0.6508444  3
   2823   2822   2825   2826     1  0.0000000  0.6508444  3
   2823   2822   2825   2827     1  0.0000000  0.6508444  3
   2823   2822   2819   2849     1  0.0000000  1.0460000  1
   2823   2822   2819   2849     1  0.0000000  0.0000000  3
   2824   2822   2825   2828     1  0.0000000  0.6508444  3
   2824   2822   2825   2826     1  0.0000000  0.6508444  3
   2824   2822   2825   2827     1  0.0000000  0.6508444  3
   2824   2822   2819   2849     1  0.0000000  1.0460000  1
   2824   2822   2819   2849     1  0.0000000  0.0000000  3
   2825   2828   2829   2830     1  0.0000000  1.2552000  3
   2825   2828   2829   2831     1  0.0000000  1.2552000  3
   2825   2828   2839   2840     1  0.0000000  1.2552000  3
   2825   2828   2839   2841     1  0.0000000  1.2552000  3
   2826   2825   2828   2829     1  0.0000000  1.2552000  3
   2826   2825   2828   2839     1  0.0000000  1.2552000  3
   2827   2825   2828   2829     1  0.0000000  1.2552000  3
   2827   2825   2828   2839     1  0.0000000  1.2552000  3
   2828   2829   2832   2833     1  0.0000000  0.6508444  3
   2828   2829   2832   2834     1  0.0000000  0.6508444  3
   2828   2839   2842   2843     1  0.0000000  0.6508444  3
   2828   2839   2842   2844     1  0.0000000  0.6508444  3
   2829   2828   2839   2840     1  0.0000000  1.2552000  3
   2829   2828   2839   2841     1  0.0000000  1.2552000  3
   2830   2829   2832   2835     1  0.0000000  0.6508444  3
   2830   2829   2832   2833     1  0.0000000  0.6508444  3
   2830   2829   2832   2834     1  0.0000000  0.6508444  3
   2830   2829   2828   2839     1  0.0000000  1.2552000  3
   2831   2829   2832   2835     1  0.0000000  0.6508444  3
   2831   2829   2832   2833     1  0.0000000  0.6508444  3
   2831   2829   2832   2834     1  0.0000000  0.6508444  3
   2831   2829   2828   2839     1  0.0000000  1.2552000  3
   2832   2835   2837   2838     1  180.0000771  9.6232000  2
   2833   2832   2835   2836     1  0.0000000  3.3472000  1
   2833   2832   2835   2836     1  0.0000000  0.0000000  2
   2833   2832   2835   2836     1  180.0000771  0.3347200  3
   2833   2832   2835   2837     1  180.0000771  0.0000000  2
   2834   2832   2835   2836     1  0.0000000  3.3472000  1
   2834   2832   2835   2836     1  0.0000000  0.0000000  2
   2834   2832   2835   2836     1  180.0000771  0.3347200  3
   2834   2832   2835   2837     1  180.0000771  0.0000000  2
   2836   2835   2837   2838     1  0.0000000  7.9496000  1
   2836   2835   2837   2838     1  180.0000771  9.6232000  2
   2840   2839   2842   2845     1  0.0000000  0.6508444  3
   2840   2839   2842   2843     1  0.0000000  0.6508444  3
   2840   2839   2842   2844     1  0.0000000  0.6508444  3
   2841   2839   2842   2845     1  0.0000000  0.6508444  3
   2841   2839   2842   2843     1  0.0000000  0.6508444  3
   2841   2839   2842   2844     1  0.0000000  0.6508444  3
   2842   2845   2847   2848     1  180.0000771  9.6232000  2
   2843   2842   2845   2846     1  0.0000000  3.3472000  1
   2843   2842   2845   2846     1  0.0000000  0.0000000  2
   2843   2842   2845   2846     1  180.0000771  0.3347200  3
   2843   2842   2845   2847     1  180.0000771  0.0000000  2
   2844   2842   2845   2846     1  0.0000000  3.3472000  1
   2844   2842   2845   2846     1  0.0000000  0.0000000  2
   2844   2842   2845   2846     1  180.0000771  0.3347200  3
   2844   2842   2845   2847     1  180.0000771  0.0000000  2
   2846   2845   2847   2848     1  0.0000000  7.9496000  1
   2846   2845   2847   2848     1  180.0000771  9.6232000  2
   2850   2853   2856   2857     1  0.0000000  0.6508444  3
   2850   2853   2856   2858     1  0.0000000  0.6508444  3
   2851   2850   2853   2856     1  0.0000000  0.6508444  3
   2851   2850   2853   2854     1  0.0000000  0.6508444  3
   2851   2850   2853   2855     1  0.0000000  0.6508444  3
   2852   2850   2853   2856     1  0.0000000  0.6508444  3
   2852   2850   2853   2854     1  0.0000000  0.6508444  3
   2852   2850   2853   2855     1  0.0000000  0.6508444  3
   2854   2853   2850   2880     1  0.0000000  1.0460000  1
   2854   2853   2850   2880     1  0.0000000  0.0000000  3
   2854   2853   2856   2859     1  0.0000000  0.6508444  3
   2854   2853   2856   2857     1  0.0000000  0.6508444  3
   2854   2853   2856   2858     1  0.0000000  0.6508444  3
   2855   2853   2850   2880     1  0.0000000  1.0460000  1
   2855   2853   2850   2880     1  0.0000000  0.0000000  3
   2855   2853   2856   2859     1  0.0000000  0.6508444  3
   2855   2853   2856   2857     1  0.0000000  0.6508444  3
   2855   2853   2856   2858     1  0.0000000  0.6508444  3
   2856   2859   2860   2861     1  0.0000000  1.2552000  3
   2856   2859   2860   2862     1  0.0000000  1.2552000  3
   2856   2859   2870   2871     1  0.0000000  1.2552000  3
   2856   2859   2870   2872     1  0.0000000  1.2552000  3
   2857   2856   2859   2860     1  0.0000000  1.2552000  3
   2857   2856   2859   2870     1  0.0000000  1.2552000  3
   2858   2856   2859   2860     1  0.0000000  1.2552000  3
   2858   2856   2859   2870     1  0.0000000  1.2552000  3
   2859   2860   2863   2864     1  0.0000000  0.6508444  3
   2859   2860   2863   2865     1  0.0000000  0.6508444  3
   2859   2870   2873   2874     1  0.0000000  0.6508444  3
   2859   2870   2873   2875     1  0.0000000  0.6508444  3
   2860   2859   2870   2871     1  0.0000000  1.2552000  3
   2860   2859   2870   2872     1  0.0000000  1.2552000  3
   2861   2860   2859   2870     1  0.0000000  1.2552000  3
   2861   2860   2863   2866     1  0.0000000  0.6508444  3
   2861   2860   2863   2864     1  0.0000000  0.6508444  3
   2861   2860   2863   2865     1  0.0000000  0.6508444  3
   2862   2860   2859   2870     1  0.0000000  1.2552000  3
   2862   2860   2863   2866     1  0.0000000  0.6508444  3
   2862   2860   2863   2864     1  0.0000000  0.6508444  3
   2862   2860   2863   2865     1  0.0000000  0.6508444  3
   2863   2866   2868   2869     1  180.0000771  9.6232000  2
   2864   2863   2866   2867     1  0.0000000  3.3472000  1
   2864   2863   2866   2867     1  0.0000000  0.0000000  2
   2864   2863   2866   2867     1  180.0000771  0.3347200  3
   2864   2863   2866   2868     1  180.0000771  0.0000000  2
   2865   2863   2866   2867     1  0.0000000  3.3472000  1
   2865   2863   2866   2867     1  0.0000000  0.0000000  2
   2865   2863   2866   2867     1  180.0000771  0.3347200  3
   2865   2863   2866   2868     1  180.0000771  0.0000000  2
   2867   2866   2868   2869     1  0.0000000  7.9496000  1
   2867   2866   2868   2869     1  180.0000771  9.6232000  2
   2871   2870   2873   2876     1  0.0000000  0.6508444  3
   2871   2870   2873   2874     1  0.0000000  0.6508444  3
   2871   2870   2873   2875     1  0.0000000  0.6508444  3
   2872   2870   2873   2876     1  0.0000000  0.6508444  3
   2872   2870   2873   2874     1  0.0000000  0.6508444  3
   2872   2870   2873   2875     1  0.0000000  0.6508444  3
   2873   2876   2878   2879     1  180.0000771  9.6232000  2
   2874   2873   2876   2877     1  0.0000000  3.3472000  1
   2874   2873   2876   2877     1  0.0000000  0.0000000  2
   2874   2873   2876   2877     1  180.0000771  0.3347200  3
   2874   2873   2876   2878     1  180.0000771  0.0000000  2
   2875   2873   2876   2877     1  0.0000000  3.3472000  1
   2875   2873   2876   2877     1  0.0000000  0.0000000  2
   2875   2873   2876   2877     1  180.0000771  0.3347200  3
   2875   2873   2876   2878     1  180.0000771  0.0000000  2
   2877   2876   2878   2879     1  0.0000000  7.9496000  1
   2877   2876   2878   2879     1  180.0000771  9.6232000  2
   2881   2884   2887   2888     1  0.0000000  0.6508444  3
   2881   2884   2887   2889     1  0.0000000  0.6508444  3
   2882   2881   2884   2887     1  0.0000000  0.6508444  3
   2882   2881   2884   2885     1  0.0000000  0.6508444  3
   2882   2881   2884   2886     1  0.0000000  0.6508444  3
   2883   2881   2884   2887     1  0.0000000  0.6508444  3
   2883   2881   2884   2885     1  0.0000000  0.6508444  3
   2883   2881   2884   2886     1  0.0000000  0.6508444  3
   2885   2884   2887   2890     1  0.0000000  0.6508444  3
   2885   2884   2887   2888     1  0.0000000  0.6508444  3
   2885   2884   2887   2889     1  0.0000000  0.6508444  3
   2885   2884   2881   2911     1  0.0000000  1.0460000  1
   2885   2884   2881   2911     1  0.0000000  0.0000000  3
   2886   2884   2887   2890     1  0.0000000  0.6508444  3
   2886   2884   2887   2888     1  0.0000000  0.6508444  3
   2886   2884   2887   2889     1  0.0000000  0.6508444  3
   2886   2884   2881   2911     1  0.0000000  1.0460000  1
   2886   2884   2881   2911     1  0.0000000  0.0000000  3
   2887   2890   2891   2892     1  0.0000000  1.2552000  3
   2887   2890   2891   2893     1  0.0000000  1.2552000  3
   2887   2890   2901   2902     1  0.0000000  1.2552000  3
   2887   2890   2901   2903     1  0.0000000  1.2552000  3
   2888   2887   2890   2891     1  0.0000000  1.2552000  3
   2888   2887   2890   2901     1  0.0000000  1.2552000  3
   2889   2887   2890   2891     1  0.0000000  1.2552000  3
   2889   2887   2890   2901     1  0.0000000  1.2552000  3
   2890   2891   2894   2895     1  0.0000000  0.6508444  3
   2890   2891   2894   2896     1  0.0000000  0.6508444  3
   2890   2901   2904   2905     1  0.0000000  0.6508444  3
   2890   2901   2904   2906     1  0.0000000  0.6508444  3
   2891   2890   2901   2902     1  0.0000000  1.2552000  3
   2891   2890   2901   2903     1  0.0000000  1.2552000  3
   2892   2891   2894   2897     1  0.0000000  0.6508444  3
   2892   2891   2894   2895     1  0.0000000  0.6508444  3
   2892   2891   2894   2896     1  0.0000000  0.6508444  3
   2892   2891   2890   2901     1  0.0000000  1.2552000  3
   2893   2891   2894   2897     1  0.0000000  0.6508444  3
   2893   2891   2894   2895     1  0.0000000  0.6508444  3
   2893   2891   2894   2896     1  0.0000000  0.6508444  3
   2893   2891   2890   2901     1  0.0000000  1.2552000  3
   2894   2897   2899   2900     1  180.0000771  9.6232000  2
   2895   2894   2897   2898     1  0.0000000  3.3472000  1
   2895   2894   2897   2898     1  0.0000000  0.0000000  2
   2895   2894   2897   2898     1  180.0000771  0.3347200  3
   2895   2894   2897   2899     1  180.0000771  0.0000000  2
   2896   2894   2897   2898     1  0.0000000  3.3472000  1
   2896   2894   2897   2898     1  0.0000000  0.0000000  2
   2896   2894   2897   2898     1  180.0000771  0.3347200  3
   2896   2894   2897   2899     1  180.0000771  0.0000000  2
   2898   2897   2899   2900     1  0.0000000  7.9496000  1
   2898   2897   2899   2900     1  180.0000771  9.6232000  2
   2902   2901   2904   2907     1  0.0000000  0.6508444  3
   2902   2901   2904   2905     1  0.0000000  0.6508444  3
   2902   2901   2904   2906     1  0.0000000  0.6508444  3
   2903   2901   2904   2907     1  0.0000000  0.6508444  3
   2903   2901   2904   2905     1  0.0000000  0.6508444  3
   2903   2901   2904   2906     1  0.0000000  0.6508444  3
   2904   2907   2909   2910     1  180.0000771  9.6232000  2
   2905   2904   2907   2908     1  0.0000000  3.3472000  1
   2905   2904   2907   2908     1  0.0000000  0.0000000  2
   2905   2904   2907   2908     1  180.0000771  0.3347200  3
   2905   2904   2907   2909     1  180.0000771  0.0000000  2
   2906   2904   2907   2908     1  0.0000000  3.3472000  1
   2906   2904   2907   2908     1  0.0000000  0.0000000  2
   2906   2904   2907   2908     1  180.0000771  0.3347200  3
   2906   2904   2907   2909     1  180.0000771  0.0000000  2
   2908   2907   2909   2910     1  0.0000000  7.9496000  1
   2908   2907   2909   2910     1  180.0000771  9.6232000  2
   2912   2915   2918   2919     1  0.0000000  0.6508444  3
   2912   2915   2918   2920     1  0.0000000  0.6508444  3
   2913   2912   2915   2918     1  0.0000000  0.6508444  3
   2913   2912   2915   2916     1  0.0000000  0.6508444  3
   2913   2912   2915   2917     1  0.0000000  0.6508444  3
   2914   2912   2915   2918     1  0.0000000  0.6508444  3
   2914   2912   2915   2916     1  0.0000000  0.6508444  3
   2914   2912   2915   2917     1  0.0000000  0.6508444  3
   2916   2915   2912   2942     1  0.0000000  1.0460000  1
   2916   2915   2912   2942     1  0.0000000  0.0000000  3
   2916   2915   2918   2921     1  0.0000000  0.6508444  3
   2916   2915   2918   2919     1  0.0000000  0.6508444  3
   2916   2915   2918   2920     1  0.0000000  0.6508444  3
   2917   2915   2912   2942     1  0.0000000  1.0460000  1
   2917   2915   2912   2942     1  0.0000000  0.0000000  3
   2917   2915   2918   2921     1  0.0000000  0.6508444  3
   2917   2915   2918   2919     1  0.0000000  0.6508444  3
   2917   2915   2918   2920     1  0.0000000  0.6508444  3
   2918   2921   2922   2923     1  0.0000000  1.2552000  3
   2918   2921   2922   2924     1  0.0000000  1.2552000  3
   2918   2921   2932   2933     1  0.0000000  1.2552000  3
   2918   2921   2932   2934     1  0.0000000  1.2552000  3
   2919   2918   2921   2922     1  0.0000000  1.2552000  3
   2919   2918   2921   2932     1  0.0000000  1.2552000  3
   2920   2918   2921   2922     1  0.0000000  1.2552000  3
   2920   2918   2921   2932     1  0.0000000  1.2552000  3
   2921   2922   2925   2926     1  0.0000000  0.6508444  3
   2921   2922   2925   2927     1  0.0000000  0.6508444  3
   2921   2932   2935   2936     1  0.0000000  0.6508444  3
   2921   2932   2935   2937     1  0.0000000  0.6508444  3
   2922   2921   2932   2933     1  0.0000000  1.2552000  3
   2922   2921   2932   2934     1  0.0000000  1.2552000  3
   2923   2922   2921   2932     1  0.0000000  1.2552000  3
   2923   2922   2925   2928     1  0.0000000  0.6508444  3
   2923   2922   2925   2926     1  0.0000000  0.6508444  3
   2923   2922   2925   2927     1  0.0000000  0.6508444  3
   2924   2922   2921   2932     1  0.0000000  1.2552000  3
   2924   2922   2925   2928     1  0.0000000  0.6508444  3
   2924   2922   2925   2926     1  0.0000000  0.6508444  3
   2924   2922   2925   2927     1  0.0000000  0.6508444  3
   2925   2928   2930   2931     1  180.0000771  9.6232000  2
   2926   2925   2928   2929     1  0.0000000  3.3472000  1
   2926   2925   2928   2929     1  0.0000000  0.0000000  2
   2926   2925   2928   2929     1  180.0000771  0.3347200  3
   2926   2925   2928   2930     1  180.0000771  0.0000000  2
   2927   2925   2928   2929     1  0.0000000  3.3472000  1
   2927   2925   2928   2929     1  0.0000000  0.0000000  2
   2927   2925   2928   2929     1  180.0000771  0.3347200  3
   2927   2925   2928   2930     1  180.0000771  0.0000000  2
   2929   2928   2930   2931     1  0.0000000  7.9496000  1
   2929   2928   2930   2931     1  180.0000771  9.6232000  2
   2933   2932   2935   2938     1  0.0000000  0.6508444  3
   2933   2932   2935   2936     1  0.0000000  0.6508444  3
   2933   2932   2935   2937     1  0.0000000  0.6508444  3
   2934   2932   2935   2938     1  0.0000000  0.6508444  3
   2934   2932   2935   2936     1  0.0000000  0.6508444  3
   2934   2932   2935   2937     1  0.0000000  0.6508444  3
   2935   2938   2940   2941     1  180.0000771  9.6232000  2
   2936   2935   2938   2939     1  0.0000000  3.3472000  1
   2936   2935   2938   2939     1  0.0000000  0.0000000  2
   2936   2935   2938   2939     1  180.0000771  0.3347200  3
   2936   2935   2938   2940     1  180.0000771  0.0000000  2
   2937   2935   2938   2939     1  0.0000000  3.3472000  1
   2937   2935   2938   2939     1  0.0000000  0.0000000  2
   2937   2935   2938   2939     1  180.0000771  0.3347200  3
   2937   2935   2938   2940     1  180.0000771  0.0000000  2
   2939   2938   2940   2941     1  0.0000000  7.9496000  1
   2939   2938   2940   2941     1  180.0000771  9.6232000  2
   2943   2946   2949   2950     1  0.0000000  0.6508444  3
   2943   2946   2949   2951     1  0.0000000  0.6508444  3
   2944   2943   2946   2949     1  0.0000000  0.6508444  3
   2944   2943   2946   2947     1  0.0000000  0.6508444  3
   2944   2943   2946   2948     1  0.0000000  0.6508444  3
   2945   2943   2946   2949     1  0.0000000  0.6508444  3
   2945   2943   2946   2947     1  0.0000000  0.6508444  3
   2945   2943   2946   2948     1  0.0000000  0.6508444  3
   2947   2946   2949   2952     1  0.0000000  0.6508444  3
   2947   2946   2949   2950     1  0.0000000  0.6508444  3
   2947   2946   2949   2951     1  0.0000000  0.6508444  3
   2947   2946   2943   2973     1  0.0000000  1.0460000  1
   2947   2946   2943   2973     1  0.0000000  0.0000000  3
   2948   2946   2949   2952     1  0.0000000  0.6508444  3
   2948   2946   2949   2950     1  0.0000000  0.6508444  3
   2948   2946   2949   2951     1  0.0000000  0.6508444  3
   2948   2946   2943   2973     1  0.0000000  1.0460000  1
   2948   2946   2943   2973     1  0.0000000  0.0000000  3
   2949   2952   2953   2954     1  0.0000000  1.2552000  3
   2949   2952   2953   2955     1  0.0000000  1.2552000  3
   2949   2952   2963   2964     1  0.0000000  1.2552000  3
   2949   2952   2963   2965     1  0.0000000  1.2552000  3
   2950   2949   2952   2953     1  0.0000000  1.2552000  3
   2950   2949   2952   2963     1  0.0000000  1.2552000  3
   2951   2949   2952   2953     1  0.0000000  1.2552000  3
   2951   2949   2952   2963     1  0.0000000  1.2552000  3
   2952   2953   2956   2957     1  0.0000000  0.6508444  3
   2952   2953   2956   2958     1  0.0000000  0.6508444  3
   2952   2963   2966   2967     1  0.0000000  0.6508444  3
   2952   2963   2966   2968     1  0.0000000  0.6508444  3
   2953   2952   2963   2964     1  0.0000000  1.2552000  3
   2953   2952   2963   2965     1  0.0000000  1.2552000  3
   2954   2953   2956   2959     1  0.0000000  0.6508444  3
   2954   2953   2956   2957     1  0.0000000  0.6508444  3
   2954   2953   2956   2958     1  0.0000000  0.6508444  3
   2954   2953   2952   2963     1  0.0000000  1.2552000  3
   2955   2953   2956   2959     1  0.0000000  0.6508444  3
   2955   2953   2956   2957     1  0.0000000  0.6508444  3
   2955   2953   2956   2958     1  0.0000000  0.6508444  3
   2955   2953   2952   2963     1  0.0000000  1.2552000  3
   2956   2959   2961   2962     1  180.0000771  9.6232000  2
   2957   2956   2959   2960     1  0.0000000  3.3472000  1
   2957   2956   2959   2960     1  0.0000000  0.0000000  2
   2957   2956   2959   2960     1  180.0000771  0.3347200  3
   2957   2956   2959   2961     1  180.0000771  0.0000000  2
   2958   2956   2959   2960     1  0.0000000  3.3472000  1
   2958   2956   2959   2960     1  0.0000000  0.0000000  2
   2958   2956   2959   2960     1  180.0000771  0.3347200  3
   2958   2956   2959   2961     1  180.0000771  0.0000000  2
   2960   2959   2961   2962     1  0.0000000  7.9496000  1
   2960   2959   2961   2962     1  180.0000771  9.6232000  2
   2964   2963   2966   2969     1  0.0000000  0.6508444  3
   2964   2963   2966   2967     1  0.0000000  0.6508444  3
   2964   2963   2966   2968     1  0.0000000  0.6508444  3
   2965   2963   2966   2969     1  0.0000000  0.6508444  3
   2965   2963   2966   2967     1  0.0000000  0.6508444  3
   2965   2963   2966   2968     1  0.0000000  0.6508444  3
   2966   2969   2971   2972     1  180.0000771  9.6232000  2
   2967   2966   2969   2970     1  0.0000000  3.3472000  1
   2967   2966   2969   2970     1  0.0000000  0.0000000  2
   2967   2966   2969   2970     1  180.0000771  0.3347200  3
   2967   2966   2969   2971     1  180.0000771  0.0000000  2
   2968   2966   2969   2970     1  0.0000000  3.3472000  1
   2968   2966   2969   2970     1  0.0000000  0.0000000  2
   2968   2966   2969   2970     1  180.0000771  0.3347200  3
   2968   2966   2969   2971     1  180.0000771  0.0000000  2
   2970   2969   2971   2972     1  0.0000000  7.9496000  1
   2970   2969   2971   2972     1  180.0000771  9.6232000  2
   2974   2977   2980   2981     1  0.0000000  0.6508444  3
   2974   2977   2980   2982     1  0.0000000  0.6508444  3
   2975   2974   2977   2980     1  0.0000000  0.6508444  3
   2975   2974   2977   2978     1  0.0000000  0.6508444  3
   2975   2974   2977   2979     1  0.0000000  0.6508444  3
   2976   2974   2977   2980     1  0.0000000  0.6508444  3
   2976   2974   2977   2978     1  0.0000000  0.6508444  3
   2976   2974   2977   2979     1  0.0000000  0.6508444  3
   2978   2977   2974   3004     1  0.0000000  1.0460000  1
   2978   2977   2974   3004     1  0.0000000  0.0000000  3
   2978   2977   2980   2983     1  0.0000000  0.6508444  3
   2978   2977   2980   2981     1  0.0000000  0.6508444  3
   2978   2977   2980   2982     1  0.0000000  0.6508444  3
   2979   2977   2974   3004     1  0.0000000  1.0460000  1
   2979   2977   2974   3004     1  0.0000000  0.0000000  3
   2979   2977   2980   2983     1  0.0000000  0.6508444  3
   2979   2977   2980   2981     1  0.0000000  0.6508444  3
   2979   2977   2980   2982     1  0.0000000  0.6508444  3
   2980   2983   2984   2985     1  0.0000000  1.2552000  3
   2980   2983   2984   2986     1  0.0000000  1.2552000  3
   2980   2983   2994   2995     1  0.0000000  1.2552000  3
   2980   2983   2994   2996     1  0.0000000  1.2552000  3
   2981   2980   2983   2984     1  0.0000000  1.2552000  3
   2981   2980   2983   2994     1  0.0000000  1.2552000  3
   2982   2980   2983   2984     1  0.0000000  1.2552000  3
   2982   2980   2983   2994     1  0.0000000  1.2552000  3
   2983   2984   2987   2988     1  0.0000000  0.6508444  3
   2983   2984   2987   2989     1  0.0000000  0.6508444  3
   2983   2994   2997   2998     1  0.0000000  0.6508444  3
   2983   2994   2997   2999     1  0.0000000  0.6508444  3
   2984   2983   2994   2995     1  0.0000000  1.2552000  3
   2984   2983   2994   2996     1  0.0000000  1.2552000  3
   2985   2984   2983   2994     1  0.0000000  1.2552000  3
   2985   2984   2987   2990     1  0.0000000  0.6508444  3
   2985   2984   2987   2988     1  0.0000000  0.6508444  3
   2985   2984   2987   2989     1  0.0000000  0.6508444  3
   2986   2984   2983   2994     1  0.0000000  1.2552000  3
   2986   2984   2987   2990     1  0.0000000  0.6508444  3
   2986   2984   2987   2988     1  0.0000000  0.6508444  3
   2986   2984   2987   2989     1  0.0000000  0.6508444  3
   2987   2990   2992   2993     1  180.0000771  9.6232000  2
   2988   2987   2990   2991     1  0.0000000  3.3472000  1
   2988   2987   2990   2991     1  0.0000000  0.0000000  2
   2988   2987   2990   2991     1  180.0000771  0.3347200  3
   2988   2987   2990   2992     1  180.0000771  0.0000000  2
   2989   2987   2990   2991     1  0.0000000  3.3472000  1
   2989   2987   2990   2991     1  0.0000000  0.0000000  2
   2989   2987   2990   2991     1  180.0000771  0.3347200  3
   2989   2987   2990   2992     1  180.0000771  0.0000000  2
   2991   2990   2992   2993     1  0.0000000  7.9496000  1
   2991   2990   2992   2993     1  180.0000771  9.6232000  2
   2995   2994   2997   3000     1  0.0000000  0.6508444  3
   2995   2994   2997   2998     1  0.0000000  0.6508444  3
   2995   2994   2997   2999     1  0.0000000  0.6508444  3
   2996   2994   2997   3000     1  0.0000000  0.6508444  3
   2996   2994   2997   2998     1  0.0000000  0.6508444  3
   2996   2994   2997   2999     1  0.0000000  0.6508444  3
   2997   3000   3002   3003     1  180.0000771  9.6232000  2
   2998   2997   3000   3001     1  0.0000000  3.3472000  1
   2998   2997   3000   3001     1  0.0000000  0.0000000  2
   2998   2997   3000   3001     1  180.0000771  0.3347200  3
   2998   2997   3000   3002     1  180.0000771  0.0000000  2
   2999   2997   3000   3001     1  0.0000000  3.3472000  1
   2999   2997   3000   3001     1  0.0000000  0.0000000  2
   2999   2997   3000   3001     1  180.0000771  0.3347200  3
   2999   2997   3000   3002     1  180.0000771  0.0000000  2
   3001   3000   3002   3003     1  0.0000000  7.9496000  1
   3001   3000   3002   3003     1  180.0000771  9.6232000  2
   3005   3008   3011   3012     1  0.0000000  0.6508444  3
   3005   3008   3011   3013     1  0.0000000  0.6508444  3
   3006   3005   3008   3011     1  0.0000000  0.6508444  3
   3006   3005   3008   3009     1  0.0000000  0.6508444  3
   3006   3005   3008   3010     1  0.0000000  0.6508444  3
   3007   3005   3008   3011     1  0.0000000  0.6508444  3
   3007   3005   3008   3009     1  0.0000000  0.6508444  3
   3007   3005   3008   3010     1  0.0000000  0.6508444  3
   3009   3008   3011   3014     1  0.0000000  0.6508444  3
   3009   3008   3011   3012     1  0.0000000  0.6508444  3
   3009   3008   3011   3013     1  0.0000000  0.6508444  3
   3009   3008   3005   3035     1  0.0000000  1.0460000  1
   3009   3008   3005   3035     1  0.0000000  0.0000000  3
   3010   3008   3011   3014     1  0.0000000  0.6508444  3
   3010   3008   3011   3012     1  0.0000000  0.6508444  3
   3010   3008   3011   3013     1  0.0000000  0.6508444  3
   3010   3008   3005   3035     1  0.0000000  1.0460000  1
   3010   3008   3005   3035     1  0.0000000  0.0000000  3
   3011   3014   3015   3016     1  0.0000000  1.2552000  3
   3011   3014   3015   3017     1  0.0000000  1.2552000  3
   3011   3014   3025   3026     1  0.0000000  1.2552000  3
   3011   3014   3025   3027     1  0.0000000  1.2552000  3
   3012   3011   3014   3015     1  0.0000000  1.2552000  3
   3012   3011   3014   3025     1  0.0000000  1.2552000  3
   3013   3011   3014   3015     1  0.0000000  1.2552000  3
   3013   3011   3014   3025     1  0.0000000  1.2552000  3
   3014   3015   3018   3019     1  0.0000000  0.6508444  3
   3014   3015   3018   3020     1  0.0000000  0.6508444  3
   3014   3025   3028   3029     1  0.0000000  0.6508444  3
   3014   3025   3028   3030     1  0.0000000  0.6508444  3
   3015   3014   3025   3026     1  0.0000000  1.2552000  3
   3015   3014   3025   3027     1  0.0000000  1.2552000  3
   3016   3015   3018   3021     1  0.0000000  0.6508444  3
   3016   3015   3018   3019     1  0.0000000  0.6508444  3
   3016   3015   3018   3020     1  0.0000000  0.6508444  3
   3016   3015   3014   3025     1  0.0000000  1.2552000  3
   3017   3015   3018   3021     1  0.0000000  0.6508444  3
   3017   3015   3018   3019     1  0.0000000  0.6508444  3
   3017   3015   3018   3020     1  0.0000000  0.6508444  3
   3017   3015   3014   3025     1  0.0000000  1.2552000  3
   3018   3021   3023   3024     1  180.0000771  9.6232000  2
   3019   3018   3021   3022     1  0.0000000  3.3472000  1
   3019   3018   3021   3022     1  0.0000000  0.0000000  2
   3019   3018   3021   3022     1  180.0000771  0.3347200  3
   3019   3018   3021   3023     1  180.0000771  0.0000000  2
   3020   3018   3021   3022     1  0.0000000  3.3472000  1
   3020   3018   3021   3022     1  0.0000000  0.0000000  2
   3020   3018   3021   3022     1  180.0000771  0.3347200  3
   3020   3018   3021   3023     1  180.0000771  0.0000000  2
   3022   3021   3023   3024     1  0.0000000  7.9496000  1
   3022   3021   3023   3024     1  180.0000771  9.6232000  2
   3026   3025   3028   3031     1  0.0000000  0.6508444  3
   3026   3025   3028   3029     1  0.0000000  0.6508444  3
   3026   3025   3028   3030     1  0.0000000  0.6508444  3
   3027   3025   3028   3031     1  0.0000000  0.6508444  3
   3027   3025   3028   3029     1  0.0000000  0.6508444  3
   3027   3025   3028   3030     1  0.0000000  0.6508444  3
   3028   3031   3033   3034     1  180.0000771  9.6232000  2
   3029   3028   3031   3032     1  0.0000000  3.3472000  1
   3029   3028   3031   3032     1  0.0000000  0.0000000  2
   3029   3028   3031   3032     1  180.0000771  0.3347200  3
   3029   3028   3031   3033     1  180.0000771  0.0000000  2
   3030   3028   3031   3032     1  0.0000000  3.3472000  1
   3030   3028   3031   3032     1  0.0000000  0.0000000  2
   3030   3028   3031   3032     1  180.0000771  0.3347200  3
   3030   3028   3031   3033     1  180.0000771  0.0000000  2
   3032   3031   3033   3034     1  0.0000000  7.9496000  1
   3032   3031   3033   3034     1  180.0000771  9.6232000  2
   3036   3039   3042   3043     1  0.0000000  0.6508444  3
   3036   3039   3042   3044     1  0.0000000  0.6508444  3
   3037   3036   3039   3042     1  0.0000000  0.6508444  3
   3037   3036   3039   3040     1  0.0000000  0.6508444  3
   3037   3036   3039   3041     1  0.0000000  0.6508444  3
   3038   3036   3039   3042     1  0.0000000  0.6508444  3
   3038   3036   3039   3040     1  0.0000000  0.6508444  3
   3038   3036   3039   3041     1  0.0000000  0.6508444  3
   3040   3039   3036   3066     1  0.0000000  1.0460000  1
   3040   3039   3036   3066     1  0.0000000  0.0000000  3
   3040   3039   3042   3045     1  0.0000000  0.6508444  3
   3040   3039   3042   3043     1  0.0000000  0.6508444  3
   3040   3039   3042   3044     1  0.0000000  0.6508444  3
   3041   3039   3036   3066     1  0.0000000  1.0460000  1
   3041   3039   3036   3066     1  0.0000000  0.0000000  3
   3041   3039   3042   3045     1  0.0000000  0.6508444  3
   3041   3039   3042   3043     1  0.0000000  0.6508444  3
   3041   3039   3042   3044     1  0.0000000  0.6508444  3
   3042   3045   3046   3047     1  0.0000000  1.2552000  3
   3042   3045   3046   3048     1  0.0000000  1.2552000  3
   3042   3045   3056   3057     1  0.0000000  1.2552000  3
   3042   3045   3056   3058     1  0.0000000  1.2552000  3
   3043   3042   3045   3046     1  0.0000000  1.2552000  3
   3043   3042   3045   3056     1  0.0000000  1.2552000  3
   3044   3042   3045   3046     1  0.0000000  1.2552000  3
   3044   3042   3045   3056     1  0.0000000  1.2552000  3
   3045   3046   3049   3050     1  0.0000000  0.6508444  3
   3045   3046   3049   3051     1  0.0000000  0.6508444  3
   3045   3056   3059   3060     1  0.0000000  0.6508444  3
   3045   3056   3059   3061     1  0.0000000  0.6508444  3
   3046   3045   3056   3057     1  0.0000000  1.2552000  3
   3046   3045   3056   3058     1  0.0000000  1.2552000  3
   3047   3046   3045   3056     1  0.0000000  1.2552000  3
   3047   3046   3049   3052     1  0.0000000  0.6508444  3
   3047   3046   3049   3050     1  0.0000000  0.6508444  3
   3047   3046   3049   3051     1  0.0000000  0.6508444  3
   3048   3046   3045   3056     1  0.0000000  1.2552000  3
   3048   3046   3049   3052     1  0.0000000  0.6508444  3
   3048   3046   3049   3050     1  0.0000000  0.6508444  3
   3048   3046   3049   3051     1  0.0000000  0.6508444  3
   3049   3052   3054   3055     1  180.0000771  9.6232000  2
   3050   3049   3052   3053     1  0.0000000  3.3472000  1
   3050   3049   3052   3053     1  0.0000000  0.0000000  2
   3050   3049   3052   3053     1  180.0000771  0.3347200  3
   3050   3049   3052   3054     1  180.0000771  0.0000000  2
   3051   3049   3052   3053     1  0.0000000  3.3472000  1
   3051   3049   3052   3053     1  0.0000000  0.0000000  2
   3051   3049   3052   3053     1  180.0000771  0.3347200  3
   3051   3049   3052   3054     1  180.0000771  0.0000000  2
   3053   3052   3054   3055     1  0.0000000  7.9496000  1
   3053   3052   3054   3055     1  180.0000771  9.6232000  2
   3057   3056   3059   3062     1  0.0000000  0.6508444  3
   3057   3056   3059   3060     1  0.0000000  0.6508444  3
   3057   3056   3059   3061     1  0.0000000  0.6508444  3
   3058   3056   3059   3062     1  0.0000000  0.6508444  3
   3058   3056   3059   3060     1  0.0000000  0.6508444  3
   3058   3056   3059   3061     1  0.0000000  0.6508444  3
   3059   3062   3064   3065     1  180.0000771  9.6232000  2
   3060   3059   3062   3063     1  0.0000000  3.3472000  1
   3060   3059   3062   3063     1  0.0000000  0.0000000  2
   3060   3059   3062   3063     1  180.0000771  0.3347200  3
   3060   3059   3062   3064     1  180.0000771  0.0000000  2
   3061   3059   3062   3063     1  0.0000000  3.3472000  1
   3061   3059   3062   3063     1  0.0000000  0.0000000  2
   3061   3059   3062   3063     1  180.0000771  0.3347200  3
   3061   3059   3062   3064     1  180.0000771  0.0000000  2
   3063   3062   3064   3065     1  0.0000000  7.9496000  1
   3063   3062   3064   3065     1  180.0000771  9.6232000  2
   3067   3070   3073   3074     1  0.0000000  0.6508444  3
   3067   3070   3073   3075     1  0.0000000  0.6508444  3
   3068   3067   3070   3073     1  0.0000000  0.6508444  3
   3068   3067   3070   3071     1  0.0000000  0.6508444  3
   3068   3067   3070   3072     1  0.0000000  0.6508444  3
   3069   3067   3070   3073     1  0.0000000  0.6508444  3
   3069   3067   3070   3071     1  0.0000000  0.6508444  3
   3069   3067   3070   3072     1  0.0000000  0.6508444  3
   3071   3070   3073   3076     1  0.0000000  0.6508444  3
   3071   3070   3073   3074     1  0.0000000  0.6508444  3
   3071   3070   3073   3075     1  0.0000000  0.6508444  3
   3071   3070   3067   3097     1  0.0000000  1.0460000  1
   3071   3070   3067   3097     1  0.0000000  0.0000000  3
   3072   3070   3073   3076     1  0.0000000  0.6508444  3
   3072   3070   3073   3074     1  0.0000000  0.6508444  3
   3072   3070   3073   3075     1  0.0000000  0.6508444  3
   3072   3070   3067   3097     1  0.0000000  1.0460000  1
   3072   3070   3067   3097     1  0.0000000  0.0000000  3
   3073   3076   3077   3078     1  0.0000000  1.2552000  3
   3073   3076   3077   3079     1  0.0000000  1.2552000  3
   3073   3076   3087   3088     1  0.0000000  1.2552000  3
   3073   3076   3087   3089     1  0.0000000  1.2552000  3
   3074   3073   3076   3077     1  0.0000000  1.2552000  3
   3074   3073   3076   3087     1  0.0000000  1.2552000  3
   3075   3073   3076   3077     1  0.0000000  1.2552000  3
   3075   3073   3076   3087     1  0.0000000  1.2552000  3
   3076   3077   3080   3081     1  0.0000000  0.6508444  3
   3076   3077   3080   3082     1  0.0000000  0.6508444  3
   3076   3087   3090   3091     1  0.0000000  0.6508444  3
   3076   3087   3090   3092     1  0.0000000  0.6508444  3
   3077   3076   3087   3088     1  0.0000000  1.2552000  3
   3077   3076   3087   3089     1  0.0000000  1.2552000  3
   3078   3077   3080   3083     1  0.0000000  0.6508444  3
   3078   3077   3080   3081     1  0.0000000  0.6508444  3
   3078   3077   3080   3082     1  0.0000000  0.6508444  3
   3078   3077   3076   3087     1  0.0000000  1.2552000  3
   3079   3077   3080   3083     1  0.0000000  0.6508444  3
   3079   3077   3080   3081     1  0.0000000  0.6508444  3
   3079   3077   3080   3082     1  0.0000000  0.6508444  3
   3079   3077   3076   3087     1  0.0000000  1.2552000  3
   3080   3083   3085   3086     1  180.0000771  9.6232000  2
   3081   3080   3083   3084     1  0.0000000  3.3472000  1
   3081   3080   3083   3084     1  0.0000000  0.0000000  2
   3081   3080   3083   3084     1  180.0000771  0.3347200  3
   3081   3080   3083   3085     1  180.0000771  0.0000000  2
   3082   3080   3083   3084     1  0.0000000  3.3472000  1
   3082   3080   3083   3084     1  0.0000000  0.0000000  2
   3082   3080   3083   3084     1  180.0000771  0.3347200  3
   3082   3080   3083   3085     1  180.0000771  0.0000000  2
   3084   3083   3085   3086     1  0.0000000  7.9496000  1
   3084   3083   3085   3086     1  180.0000771  9.6232000  2
   3088   3087   3090   3093     1  0.0000000  0.6508444  3
   3088   3087   3090   3091     1  0.0000000  0.6508444  3
   3088   3087   3090   3092     1  0.0000000  0.6508444  3
   3089   3087   3090   3093     1  0.0000000  0.6508444  3
   3089   3087   3090   3091     1  0.0000000  0.6508444  3
   3089   3087   3090   3092     1  0.0000000  0.6508444  3
   3090   3093   3095   3096     1  180.0000771  9.6232000  2
   3091   3090   3093   3094     1  0.0000000  3.3472000  1
   3091   3090   3093   3094     1  0.0000000  0.0000000  2
   3091   3090   3093   3094     1  180.0000771  0.3347200  3
   3091   3090   3093   3095     1  180.0000771  0.0000000  2
   3092   3090   3093   3094     1  0.0000000  3.3472000  1
   3092   3090   3093   3094     1  0.0000000  0.0000000  2
   3092   3090   3093   3094     1  180.0000771  0.3347200  3
   3092   3090   3093   3095     1  180.0000771  0.0000000  2
   3094   3093   3095   3096     1  0.0000000  7.9496000  1
   3094   3093   3095   3096     1  180.0000771  9.6232000  2
   3098   3101   3104   3105     1  0.0000000  0.6508444  3
   3098   3101   3104   3106     1  0.0000000  0.6508444  3
   3099   3098   3101   3104     1  0.0000000  0.6508444  3
   3099   3098   3101   3102     1  0.0000000  0.6508444  3
   3099   3098   3101   3103     1  0.0000000  0.6508444  3
   3100   3098   3101   3104     1  0.0000000  0.6508444  3
   3100   3098   3101   3102     1  0.0000000  0.6508444  3
   3100   3098   3101   3103     1  0.0000000  0.6508444  3
   3102   3101   3098   3128     1  0.0000000  1.0460000  1
   3102   3101   3098   3128     1  0.0000000  0.0000000  3
   3102   3101   3104   3107     1  0.0000000  0.6508444  3
   3102   3101   3104   3105     1  0.0000000  0.6508444  3
   3102   3101   3104   3106     1  0.0000000  0.6508444  3
   3103   3101   3098   3128     1  0.0000000  1.0460000  1
   3103   3101   3098   3128     1  0.0000000  0.0000000  3
   3103   3101   3104   3107     1  0.0000000  0.6508444  3
   3103   3101   3104   3105     1  0.0000000  0.6508444  3
   3103   3101   3104   3106     1  0.0000000  0.6508444  3
   3104   3107   3108   3109     1  0.0000000  1.2552000  3
   3104   3107   3108   3110     1  0.0000000  1.2552000  3
   3104   3107   3118   3119     1  0.0000000  1.2552000  3
   3104   3107   3118   3120     1  0.0000000  1.2552000  3
   3105   3104   3107   3108     1  0.0000000  1.2552000  3
   3105   3104   3107   3118     1  0.0000000  1.2552000  3
   3106   3104   3107   3108     1  0.0000000  1.2552000  3
   3106   3104   3107   3118     1  0.0000000  1.2552000  3
   3107   3108   3111   3112     1  0.0000000  0.6508444  3
   3107   3108   3111   3113     1  0.0000000  0.6508444  3
   3107   3118   3121   3122     1  0.0000000  0.6508444  3
   3107   3118   3121   3123     1  0.0000000  0.6508444  3
   3108   3107   3118   3119     1  0.0000000  1.2552000  3
   3108   3107   3118   3120     1  0.0000000  1.2552000  3
   3109   3108   3107   3118     1  0.0000000  1.2552000  3
   3109   3108   3111   3114     1  0.0000000  0.6508444  3
   3109   3108   3111   3112     1  0.0000000  0.6508444  3
   3109   3108   3111   3113     1  0.0000000  0.6508444  3
   3110   3108   3107   3118     1  0.0000000  1.2552000  3
   3110   3108   3111   3114     1  0.0000000  0.6508444  3
   3110   3108   3111   3112     1  0.0000000  0.6508444  3
   3110   3108   3111   3113     1  0.0000000  0.6508444  3
   3111   3114   3116   3117     1  180.0000771  9.6232000  2
   3112   3111   3114   3115     1  0.0000000  3.3472000  1
   3112   3111   3114   3115     1  0.0000000  0.0000000  2
   3112   3111   3114   3115     1  180.0000771  0.3347200  3
   3112   3111   3114   3116     1  180.0000771  0.0000000  2
   3113   3111   3114   3115     1  0.0000000  3.3472000  1
   3113   3111   3114   3115     1  0.0000000  0.0000000  2
   3113   3111   3114   3115     1  180.0000771  0.3347200  3
   3113   3111   3114   3116     1  180.0000771  0.0000000  2
   3115   3114   3116   3117     1  0.0000000  7.9496000  1
   3115   3114   3116   3117     1  180.0000771  9.6232000  2
   3119   3118   3121   3124     1  0.0000000  0.6508444  3
   3119   3118   3121   3122     1  0.0000000  0.6508444  3
   3119   3118   3121   3123     1  0.0000000  0.6508444  3
   3120   3118   3121   3124     1  0.0000000  0.6508444  3
   3120   3118   3121   3122     1  0.0000000  0.6508444  3
   3120   3118   3121   3123     1  0.0000000  0.6508444  3
   3121   3124   3126   3127     1  180.0000771  9.6232000  2
   3122   3121   3124   3125     1  0.0000000  3.3472000  1
   3122   3121   3124   3125     1  0.0000000  0.0000000  2
   3122   3121   3124   3125     1  180.0000771  0.3347200  3
   3122   3121   3124   3126     1  180.0000771  0.0000000  2
   3123   3121   3124   3125     1  0.0000000  3.3472000  1
   3123   3121   3124   3125     1  0.0000000  0.0000000  2
   3123   3121   3124   3125     1  180.0000771  0.3347200  3
   3123   3121   3124   3126     1  180.0000771  0.0000000  2
   3125   3124   3126   3127     1  0.0000000  7.9496000  1
   3125   3124   3126   3127     1  180.0000771  9.6232000  2
   3129   3132   3135   3136     1  0.0000000  0.6508444  3
   3129   3132   3135   3137     1  0.0000000  0.6508444  3
   3130   3129   3132   3135     1  0.0000000  0.6508444  3
   3130   3129   3132   3133     1  0.0000000  0.6508444  3
   3130   3129   3132   3134     1  0.0000000  0.6508444  3
   3131   3129   3132   3135     1  0.0000000  0.6508444  3
   3131   3129   3132   3133     1  0.0000000  0.6508444  3
   3131   3129   3132   3134     1  0.0000000  0.6508444  3
   3133   3132   3135   3138     1  0.0000000  0.6508444  3
   3133   3132   3135   3136     1  0.0000000  0.6508444  3
   3133   3132   3135   3137     1  0.0000000  0.6508444  3
   3133   3132   3129   3159     1  0.0000000  1.0460000  1
   3133   3132   3129   3159     1  0.0000000  0.0000000  3
   3134   3132   3135   3138     1  0.0000000  0.6508444  3
   3134   3132   3135   3136     1  0.0000000  0.6508444  3
   3134   3132   3135   3137     1  0.0000000  0.6508444  3
   3134   3132   3129   3159     1  0.0000000  1.0460000  1
   3134   3132   3129   3159     1  0.0000000  0.0000000  3
   3135   3138   3139   3140     1  0.0000000  1.2552000  3
   3135   3138   3139   3141     1  0.0000000  1.2552000  3
   3135   3138   3149   3150     1  0.0000000  1.2552000  3
   3135   3138   3149   3151     1  0.0000000  1.2552000  3
   3136   3135   3138   3139     1  0.0000000  1.2552000  3
   3136   3135   3138   3149     1  0.0000000  1.2552000  3
   3137   3135   3138   3139     1  0.0000000  1.2552000  3
   3137   3135   3138   3149     1  0.0000000  1.2552000  3
   3138   3139   3142   3143     1  0.0000000  0.6508444  3
   3138   3139   3142   3144     1  0.0000000  0.6508444  3
   3138   3149   3152   3153     1  0.0000000  0.6508444  3
   3138   3149   3152   3154     1  0.0000000  0.6508444  3
   3139   3138   3149   3150     1  0.0000000  1.2552000  3
   3139   3138   3149   3151     1  0.0000000  1.2552000  3
   3140   3139   3142   3145     1  0.0000000  0.6508444  3
   3140   3139   3142   3143     1  0.0000000  0.6508444  3
   3140   3139   3142   3144     1  0.0000000  0.6508444  3
   3140   3139   3138   3149     1  0.0000000  1.2552000  3
   3141   3139   3142   3145     1  0.0000000  0.6508444  3
   3141   3139   3142   3143     1  0.0000000  0.6508444  3
   3141   3139   3142   3144     1  0.0000000  0.6508444  3
   3141   3139   3138   3149     1  0.0000000  1.2552000  3
   3142   3145   3147   3148     1  180.0000771  9.6232000  2
   3143   3142   3145   3146     1  0.0000000  3.3472000  1
   3143   3142   3145   3146     1  0.0000000  0.0000000  2
   3143   3142   3145   3146     1  180.0000771  0.3347200  3
   3143   3142   3145   3147     1  180.0000771  0.0000000  2
   3144   3142   3145   3146     1  0.0000000  3.3472000  1
   3144   3142   3145   3146     1  0.0000000  0.0000000  2
   3144   3142   3145   3146     1  180.0000771  0.3347200  3
   3144   3142   3145   3147     1  180.0000771  0.0000000  2
   3146   3145   3147   3148     1  0.0000000  7.9496000  1
   3146   3145   3147   3148     1  180.0000771  9.6232000  2
   3150   3149   3152   3155     1  0.0000000  0.6508444  3
   3150   3149   3152   3153     1  0.0000000  0.6508444  3
   3150   3149   3152   3154     1  0.0000000  0.6508444  3
   3151   3149   3152   3155     1  0.0000000  0.6508444  3
   3151   3149   3152   3153     1  0.0000000  0.6508444  3
   3151   3149   3152   3154     1  0.0000000  0.6508444  3
   3152   3155   3157   3158     1  180.0000771  9.6232000  2
   3153   3152   3155   3156     1  0.0000000  3.3472000  1
   3153   3152   3155   3156     1  0.0000000  0.0000000  2
   3153   3152   3155   3156     1  180.0000771  0.3347200  3
   3153   3152   3155   3157     1  180.0000771  0.0000000  2
   3154   3152   3155   3156     1  0.0000000  3.3472000  1
   3154   3152   3155   3156     1  0.0000000  0.0000000  2
   3154   3152   3155   3156     1  180.0000771  0.3347200  3
   3154   3152   3155   3157     1  180.0000771  0.0000000  2
   3156   3155   3157   3158     1  0.0000000  7.9496000  1
   3156   3155   3157   3158     1  180.0000771  9.6232000  2
   3160   3163   3166   3167     1  0.0000000  0.6508444  3
   3160   3163   3166   3168     1  0.0000000  0.6508444  3
   3161   3160   3163   3166     1  0.0000000  0.6508444  3
   3161   3160   3163   3164     1  0.0000000  0.6508444  3
   3161   3160   3163   3165     1  0.0000000  0.6508444  3
   3162   3160   3163   3166     1  0.0000000  0.6508444  3
   3162   3160   3163   3164     1  0.0000000  0.6508444  3
   3162   3160   3163   3165     1  0.0000000  0.6508444  3
   3164   3163   3160   3190     1  0.0000000  1.0460000  1
   3164   3163   3160   3190     1  0.0000000  0.0000000  3
   3164   3163   3166   3169     1  0.0000000  0.6508444  3
   3164   3163   3166   3167     1  0.0000000  0.6508444  3
   3164   3163   3166   3168     1  0.0000000  0.6508444  3
   3165   3163   3160   3190     1  0.0000000  1.0460000  1
   3165   3163   3160   3190     1  0.0000000  0.0000000  3
   3165   3163   3166   3169     1  0.0000000  0.6508444  3
   3165   3163   3166   3167     1  0.0000000  0.6508444  3
   3165   3163   3166   3168     1  0.0000000  0.6508444  3
   3166   3169   3170   3171     1  0.0000000  1.2552000  3
   3166   3169   3170   3172     1  0.0000000  1.2552000  3
   3166   3169   3180   3181     1  0.0000000  1.2552000  3
   3166   3169   3180   3182     1  0.0000000  1.2552000  3
   3167   3166   3169   3170     1  0.0000000  1.2552000  3
   3167   3166   3169   3180     1  0.0000000  1.2552000  3
   3168   3166   3169   3170     1  0.0000000  1.2552000  3
   3168   3166   3169   3180     1  0.0000000  1.2552000  3
   3169   3170   3173   3174     1  0.0000000  0.6508444  3
   3169   3170   3173   3175     1  0.0000000  0.6508444  3
   3169   3180   3183   3184     1  0.0000000  0.6508444  3
   3169   3180   3183   3185     1  0.0000000  0.6508444  3
   3170   3169   3180   3181     1  0.0000000  1.2552000  3
   3170   3169   3180   3182     1  0.0000000  1.2552000  3
   3171   3170   3169   3180     1  0.0000000  1.2552000  3
   3171   3170   3173   3176     1  0.0000000  0.6508444  3
   3171   3170   3173   3174     1  0.0000000  0.6508444  3
   3171   3170   3173   3175     1  0.0000000  0.6508444  3
   3172   3170   3169   3180     1  0.0000000  1.2552000  3
   3172   3170   3173   3176     1  0.0000000  0.6508444  3
   3172   3170   3173   3174     1  0.0000000  0.6508444  3
   3172   3170   3173   3175     1  0.0000000  0.6508444  3
   3173   3176   3178   3179     1  180.0000771  9.6232000  2
   3174   3173   3176   3177     1  0.0000000  3.3472000  1
   3174   3173   3176   3177     1  0.0000000  0.0000000  2
   3174   3173   3176   3177     1  180.0000771  0.3347200  3
   3174   3173   3176   3178     1  180.0000771  0.0000000  2
   3175   3173   3176   3177     1  0.0000000  3.3472000  1
   3175   3173   3176   3177     1  0.0000000  0.0000000  2
   3175   3173   3176   3177     1  180.0000771  0.3347200  3
   3175   3173   3176   3178     1  180.0000771  0.0000000  2
   3177   3176   3178   3179     1  0.0000000  7.9496000  1
   3177   3176   3178   3179     1  180.0000771  9.6232000  2
   3181   3180   3183   3186     1  0.0000000  0.6508444  3
   3181   3180   3183   3184     1  0.0000000  0.6508444  3
   3181   3180   3183   3185     1  0.0000000  0.6508444  3
   3182   3180   3183   3186     1  0.0000000  0.6508444  3
   3182   3180   3183   3184     1  0.0000000  0.6508444  3
   3182   3180   3183   3185     1  0.0000000  0.6508444  3
   3183   3186   3188   3189     1  180.0000771  9.6232000  2
   3184   3183   3186   3187     1  0.0000000  3.3472000  1
   3184   3183   3186   3187     1  0.0000000  0.0000000  2
   3184   3183   3186   3187     1  180.0000771  0.3347200  3
   3184   3183   3186   3188     1  180.0000771  0.0000000  2
   3185   3183   3186   3187     1  0.0000000  3.3472000  1
   3185   3183   3186   3187     1  0.0000000  0.0000000  2
   3185   3183   3186   3187     1  180.0000771  0.3347200  3
   3185   3183   3186   3188     1  180.0000771  0.0000000  2
   3187   3186   3188   3189     1  0.0000000  7.9496000  1
   3187   3186   3188   3189     1  180.0000771  9.6232000  2
   3191   3194   3197   3198     1  0.0000000  0.6508444  3
   3191   3194   3197   3199     1  0.0000000  0.6508444  3
   3192   3191   3194   3197     1  0.0000000  0.6508444  3
   3192   3191   3194   3195     1  0.0000000  0.6508444  3
   3192   3191   3194   3196     1  0.0000000  0.6508444  3
   3193   3191   3194   3197     1  0.0000000  0.6508444  3
   3193   3191   3194   3195     1  0.0000000  0.6508444  3
   3193   3191   3194   3196     1  0.0000000  0.6508444  3
   3195   3194   3197   3200     1  0.0000000  0.6508444  3
   3195   3194   3197   3198     1  0.0000000  0.6508444  3
   3195   3194   3197   3199     1  0.0000000  0.6508444  3
   3195   3194   3191   3221     1  0.0000000  1.0460000  1
   3195   3194   3191   3221     1  0.0000000  0.0000000  3
   3196   3194   3197   3200     1  0.0000000  0.6508444  3
   3196   3194   3197   3198     1  0.0000000  0.6508444  3
   3196   3194   3197   3199     1  0.0000000  0.6508444  3
   3196   3194   3191   3221     1  0.0000000  1.0460000  1
   3196   3194   3191   3221     1  0.0000000  0.0000000  3
   3197   3200   3201   3202     1  0.0000000  1.2552000  3
   3197   3200   3201   3203     1  0.0000000  1.2552000  3
   3197   3200   3211   3212     1  0.0000000  1.2552000  3
   3197   3200   3211   3213     1  0.0000000  1.2552000  3
   3198   3197   3200   3201     1  0.0000000  1.2552000  3
   3198   3197   3200   3211     1  0.0000000  1.2552000  3
   3199   3197   3200   3201     1  0.0000000  1.2552000  3
   3199   3197   3200   3211     1  0.0000000  1.2552000  3
   3200   3201   3204   3205     1  0.0000000  0.6508444  3
   3200   3201   3204   3206     1  0.0000000  0.6508444  3
   3200   3211   3214   3215     1  0.0000000  0.6508444  3
   3200   3211   3214   3216     1  0.0000000  0.6508444  3
   3201   3200   3211   3212     1  0.0000000  1.2552000  3
   3201   3200   3211   3213     1  0.0000000  1.2552000  3
   3202   3201   3204   3207     1  0.0000000  0.6508444  3
   3202   3201   3204   3205     1  0.0000000  0.6508444  3
   3202   3201   3204   3206     1  0.0000000  0.6508444  3
   3202   3201   3200   3211     1  0.0000000  1.2552000  3
   3203   3201   3204   3207     1  0.0000000  0.6508444  3
   3203   3201   3204   3205     1  0.0000000  0.6508444  3
   3203   3201   3204   3206     1  0.0000000  0.6508444  3
   3203   3201   3200   3211     1  0.0000000  1.2552000  3
   3204   3207   3209   3210     1  180.0000771  9.6232000  2
   3205   3204   3207   3208     1  0.0000000  3.3472000  1
   3205   3204   3207   3208     1  0.0000000  0.0000000  2
   3205   3204   3207   3208     1  180.0000771  0.3347200  3
   3205   3204   3207   3209     1  180.0000771  0.0000000  2
   3206   3204   3207   3208     1  0.0000000  3.3472000  1
   3206   3204   3207   3208     1  0.0000000  0.0000000  2
   3206   3204   3207   3208     1  180.0000771  0.3347200  3
   3206   3204   3207   3209     1  180.0000771  0.0000000  2
   3208   3207   3209   3210     1  0.0000000  7.9496000  1
   3208   3207   3209   3210     1  180.0000771  9.6232000  2
   3212   3211   3214   3217     1  0.0000000  0.6508444  3
   3212   3211   3214   3215     1  0.0000000  0.6508444  3
   3212   3211   3214   3216     1  0.0000000  0.6508444  3
   3213   3211   3214   3217     1  0.0000000  0.6508444  3
   3213   3211   3214   3215     1  0.0000000  0.6508444  3
   3213   3211   3214   3216     1  0.0000000  0.6508444  3
   3214   3217   3219   3220     1  180.0000771  9.6232000  2
   3215   3214   3217   3218     1  0.0000000  3.3472000  1
   3215   3214   3217   3218     1  0.0000000  0.0000000  2
   3215   3214   3217   3218     1  180.0000771  0.3347200  3
   3215   3214   3217   3219     1  180.0000771  0.0000000  2
   3216   3214   3217   3218     1  0.0000000  3.3472000  1
   3216   3214   3217   3218     1  0.0000000  0.0000000  2
   3216   3214   3217   3218     1  180.0000771  0.3347200  3
   3216   3214   3217   3219     1  180.0000771  0.0000000  2
   3218   3217   3219   3220     1  0.0000000  7.9496000  1
   3218   3217   3219   3220     1  180.0000771  9.6232000  2
   3222   3225   3228   3229     1  0.0000000  0.6508444  3
   3222   3225   3228   3230     1  0.0000000  0.6508444  3
   3223   3222   3225   3228     1  0.0000000  0.6508444  3
   3223   3222   3225   3226     1  0.0000000  0.6508444  3
   3223   3222   3225   3227     1  0.0000000  0.6508444  3
   3224   3222   3225   3228     1  0.0000000  0.6508444  3
   3224   3222   3225   3226     1  0.0000000  0.6508444  3
   3224   3222   3225   3227     1  0.0000000  0.6508444  3
   3226   3225   3222   3252     1  0.0000000  1.0460000  1
   3226   3225   3222   3252     1  0.0000000  0.0000000  3
   3226   3225   3228   3231     1  0.0000000  0.6508444  3
   3226   3225   3228   3229     1  0.0000000  0.6508444  3
   3226   3225   3228   3230     1  0.0000000  0.6508444  3
   3227   3225   3222   3252     1  0.0000000  1.0460000  1
   3227   3225   3222   3252     1  0.0000000  0.0000000  3
   3227   3225   3228   3231     1  0.0000000  0.6508444  3
   3227   3225   3228   3229     1  0.0000000  0.6508444  3
   3227   3225   3228   3230     1  0.0000000  0.6508444  3
   3228   3231   3232   3233     1  0.0000000  1.2552000  3
   3228   3231   3232   3234     1  0.0000000  1.2552000  3
   3228   3231   3242   3243     1  0.0000000  1.2552000  3
   3228   3231   3242   3244     1  0.0000000  1.2552000  3
   3229   3228   3231   3232     1  0.0000000  1.2552000  3
   3229   3228   3231   3242     1  0.0000000  1.2552000  3
   3230   3228   3231   3232     1  0.0000000  1.2552000  3
   3230   3228   3231   3242     1  0.0000000  1.2552000  3
   3231   3232   3235   3236     1  0.0000000  0.6508444  3
   3231   3232   3235   3237     1  0.0000000  0.6508444  3
   3231   3242   3245   3246     1  0.0000000  0.6508444  3
   3231   3242   3245   3247     1  0.0000000  0.6508444  3
   3232   3231   3242   3243     1  0.0000000  1.2552000  3
   3232   3231   3242   3244     1  0.0000000  1.2552000  3
   3233   3232   3231   3242     1  0.0000000  1.2552000  3
   3233   3232   3235   3238     1  0.0000000  0.6508444  3
   3233   3232   3235   3236     1  0.0000000  0.6508444  3
   3233   3232   3235   3237     1  0.0000000  0.6508444  3
   3234   3232   3231   3242     1  0.0000000  1.2552000  3
   3234   3232   3235   3238     1  0.0000000  0.6508444  3
   3234   3232   3235   3236     1  0.0000000  0.6508444  3
   3234   3232   3235   3237     1  0.0000000  0.6508444  3
   3235   3238   3240   3241     1  180.0000771  9.6232000  2
   3236   3235   3238   3239     1  0.0000000  3.3472000  1
   3236   3235   3238   3239     1  0.0000000  0.0000000  2
   3236   3235   3238   3239     1  180.0000771  0.3347200  3
   3236   3235   3238   3240     1  180.0000771  0.0000000  2
   3237   3235   3238   3239     1  0.0000000  3.3472000  1
   3237   3235   3238   3239     1  0.0000000  0.0000000  2
   3237   3235   3238   3239     1  180.0000771  0.3347200  3
   3237   3235   3238   3240     1  180.0000771  0.0000000  2
   3239   3238   3240   3241     1  0.0000000  7.9496000  1
   3239   3238   3240   3241     1  180.0000771  9.6232000  2
   3243   3242   3245   3248     1  0.0000000  0.6508444  3
   3243   3242   3245   3246     1  0.0000000  0.6508444  3
   3243   3242   3245   3247     1  0.0000000  0.6508444  3
   3244   3242   3245   3248     1  0.0000000  0.6508444  3
   3244   3242   3245   3246     1  0.0000000  0.6508444  3
   3244   3242   3245   3247     1  0.0000000  0.6508444  3
   3245   3248   3250   3251     1  180.0000771  9.6232000  2
   3246   3245   3248   3249     1  0.0000000  3.3472000  1
   3246   3245   3248   3249     1  0.0000000  0.0000000  2
   3246   3245   3248   3249     1  180.0000771  0.3347200  3
   3246   3245   3248   3250     1  180.0000771  0.0000000  2
   3247   3245   3248   3249     1  0.0000000  3.3472000  1
   3247   3245   3248   3249     1  0.0000000  0.0000000  2
   3247   3245   3248   3249     1  180.0000771  0.3347200  3
   3247   3245   3248   3250     1  180.0000771  0.0000000  2
   3249   3248   3250   3251     1  0.0000000  7.9496000  1
   3249   3248   3250   3251     1  180.0000771  9.6232000  2
   3253   3256   3259   3260     1  0.0000000  0.6508444  3
   3253   3256   3259   3261     1  0.0000000  0.6508444  3
   3254   3253   3256   3259     1  0.0000000  0.6508444  3
   3254   3253   3256   3257     1  0.0000000  0.6508444  3
   3254   3253   3256   3258     1  0.0000000  0.6508444  3
   3255   3253   3256   3259     1  0.0000000  0.6508444  3
   3255   3253   3256   3257     1  0.0000000  0.6508444  3
   3255   3253   3256   3258     1  0.0000000  0.6508444  3
   3257   3256   3259   3262     1  0.0000000  0.6508444  3
   3257   3256   3259   3260     1  0.0000000  0.6508444  3
   3257   3256   3259   3261     1  0.0000000  0.6508444  3
   3257   3256   3253   3283     1  0.0000000  1.0460000  1
   3257   3256   3253   3283     1  0.0000000  0.0000000  3
   3258   3256   3259   3262     1  0.0000000  0.6508444  3
   3258   3256   3259   3260     1  0.0000000  0.6508444  3
   3258   3256   3259   3261     1  0.0000000  0.6508444  3
   3258   3256   3253   3283     1  0.0000000  1.0460000  1
   3258   3256   3253   3283     1  0.0000000  0.0000000  3
   3259   3262   3263   3264     1  0.0000000  1.2552000  3
   3259   3262   3263   3265     1  0.0000000  1.2552000  3
   3259   3262   3273   3274     1  0.0000000  1.2552000  3
   3259   3262   3273   3275     1  0.0000000  1.2552000  3
   3260   3259   3262   3263     1  0.0000000  1.2552000  3
   3260   3259   3262   3273     1  0.0000000  1.2552000  3
   3261   3259   3262   3263     1  0.0000000  1.2552000  3
   3261   3259   3262   3273     1  0.0000000  1.2552000  3
   3262   3263   3266   3267     1  0.0000000  0.6508444  3
   3262   3263   3266   3268     1  0.0000000  0.6508444  3
   3262   3273   3276   3277     1  0.0000000  0.6508444  3
   3262   3273   3276   3278     1  0.0000000  0.6508444  3
   3263   3262   3273   3274     1  0.0000000  1.2552000  3
   3263   3262   3273   3275     1  0.0000000  1.2552000  3
   3264   3263   3266   3269     1  0.0000000  0.6508444  3
   3264   3263   3266   3267     1  0.0000000  0.6508444  3
   3264   3263   3266   3268     1  0.0000000  0.6508444  3
   3264   3263   3262   3273     1  0.0000000  1.2552000  3
   3265   3263   3266   3269     1  0.0000000  0.6508444  3
   3265   3263   3266   3267     1  0.0000000  0.6508444  3
   3265   3263   3266   3268     1  0.0000000  0.6508444  3
   3265   3263   3262   3273     1  0.0000000  1.2552000  3
   3266   3269   3271   3272     1  180.0000771  9.6232000  2
   3267   3266   3269   3270     1  0.0000000  3.3472000  1
   3267   3266   3269   3270     1  0.0000000  0.0000000  2
   3267   3266   3269   3270     1  180.0000771  0.3347200  3
   3267   3266   3269   3271     1  180.0000771  0.0000000  2
   3268   3266   3269   3270     1  0.0000000  3.3472000  1
   3268   3266   3269   3270     1  0.0000000  0.0000000  2
   3268   3266   3269   3270     1  180.0000771  0.3347200  3
   3268   3266   3269   3271     1  180.0000771  0.0000000  2
   3270   3269   3271   3272     1  0.0000000  7.9496000  1
   3270   3269   3271   3272     1  180.0000771  9.6232000  2
   3274   3273   3276   3279     1  0.0000000  0.6508444  3
   3274   3273   3276   3277     1  0.0000000  0.6508444  3
   3274   3273   3276   3278     1  0.0000000  0.6508444  3
   3275   3273   3276   3279     1  0.0000000  0.6508444  3
   3275   3273   3276   3277     1  0.0000000  0.6508444  3
   3275   3273   3276   3278     1  0.0000000  0.6508444  3
   3276   3279   3281   3282     1  180.0000771  9.6232000  2
   3277   3276   3279   3280     1  0.0000000  3.3472000  1
   3277   3276   3279   3280     1  0.0000000  0.0000000  2
   3277   3276   3279   3280     1  180.0000771  0.3347200  3
   3277   3276   3279   3281     1  180.0000771  0.0000000  2
   3278   3276   3279   3280     1  0.0000000  3.3472000  1
   3278   3276   3279   3280     1  0.0000000  0.0000000  2
   3278   3276   3279   3280     1  180.0000771  0.3347200  3
   3278   3276   3279   3281     1  180.0000771  0.0000000  2
   3280   3279   3281   3282     1  0.0000000  7.9496000  1
   3280   3279   3281   3282     1  180.0000771  9.6232000  2
   3284   3287   3290   3291     1  0.0000000  0.6508444  3
   3284   3287   3290   3292     1  0.0000000  0.6508444  3
   3285   3284   3287   3290     1  0.0000000  0.6508444  3
   3285   3284   3287   3288     1  0.0000000  0.6508444  3
   3285   3284   3287   3289     1  0.0000000  0.6508444  3
   3286   3284   3287   3290     1  0.0000000  0.6508444  3
   3286   3284   3287   3288     1  0.0000000  0.6508444  3
   3286   3284   3287   3289     1  0.0000000  0.6508444  3
   3288   3287   3284   3314     1  0.0000000  1.0460000  1
   3288   3287   3284   3314     1  0.0000000  0.0000000  3
   3288   3287   3290   3293     1  0.0000000  0.6508444  3
   3288   3287   3290   3291     1  0.0000000  0.6508444  3
   3288   3287   3290   3292     1  0.0000000  0.6508444  3
   3289   3287   3284   3314     1  0.0000000  1.0460000  1
   3289   3287   3284   3314     1  0.0000000  0.0000000  3
   3289   3287   3290   3293     1  0.0000000  0.6508444  3
   3289   3287   3290   3291     1  0.0000000  0.6508444  3
   3289   3287   3290   3292     1  0.0000000  0.6508444  3
   3290   3293   3294   3295     1  0.0000000  1.2552000  3
   3290   3293   3294   3296     1  0.0000000  1.2552000  3
   3290   3293   3304   3305     1  0.0000000  1.2552000  3
   3290   3293   3304   3306     1  0.0000000  1.2552000  3
   3291   3290   3293   3294     1  0.0000000  1.2552000  3
   3291   3290   3293   3304     1  0.0000000  1.2552000  3
   3292   3290   3293   3294     1  0.0000000  1.2552000  3
   3292   3290   3293   3304     1  0.0000000  1.2552000  3
   3293   3294   3297   3298     1  0.0000000  0.6508444  3
   3293   3294   3297   3299     1  0.0000000  0.6508444  3
   3293   3304   3307   3308     1  0.0000000  0.6508444  3
   3293   3304   3307   3309     1  0.0000000  0.6508444  3
   3294   3293   3304   3305     1  0.0000000  1.2552000  3
   3294   3293   3304   3306     1  0.0000000  1.2552000  3
   3295   3294   3293   3304     1  0.0000000  1.2552000  3
   3295   3294   3297   3300     1  0.0000000  0.6508444  3
   3295   3294   3297   3298     1  0.0000000  0.6508444  3
   3295   3294   3297   3299     1  0.0000000  0.6508444  3
   3296   3294   3293   3304     1  0.0000000  1.2552000  3
   3296   3294   3297   3300     1  0.0000000  0.6508444  3
   3296   3294   3297   3298     1  0.0000000  0.6508444  3
   3296   3294   3297   3299     1  0.0000000  0.6508444  3
   3297   3300   3302   3303     1  180.0000771  9.6232000  2
   3298   3297   3300   3301     1  0.0000000  3.3472000  1
   3298   3297   3300   3301     1  0.0000000  0.0000000  2
   3298   3297   3300   3301     1  180.0000771  0.3347200  3
   3298   3297   3300   3302     1  180.0000771  0.0000000  2
   3299   3297   3300   3301     1  0.0000000  3.3472000  1
   3299   3297   3300   3301     1  0.0000000  0.0000000  2
   3299   3297   3300   3301     1  180.0000771  0.3347200  3
   3299   3297   3300   3302     1  180.0000771  0.0000000  2
   3301   3300   3302   3303     1  0.0000000  7.9496000  1
   3301   3300   3302   3303     1  180.0000771  9.6232000  2
   3305   3304   3307   3310     1  0.0000000  0.6508444  3
   3305   3304   3307   3308     1  0.0000000  0.6508444  3
   3305   3304   3307   3309     1  0.0000000  0.6508444  3
   3306   3304   3307   3310     1  0.0000000  0.6508444  3
   3306   3304   3307   3308     1  0.0000000  0.6508444  3
   3306   3304   3307   3309     1  0.0000000  0.6508444  3
   3307   3310   3312   3313     1  180.0000771  9.6232000  2
   3308   3307   3310   3311     1  0.0000000  3.3472000  1
   3308   3307   3310   3311     1  0.0000000  0.0000000  2
   3308   3307   3310   3311     1  180.0000771  0.3347200  3
   3308   3307   3310   3312     1  180.0000771  0.0000000  2
   3309   3307   3310   3311     1  0.0000000  3.3472000  1
   3309   3307   3310   3311     1  0.0000000  0.0000000  2
   3309   3307   3310   3311     1  180.0000771  0.3347200  3
   3309   3307   3310   3312     1  180.0000771  0.0000000  2
   3311   3310   3312   3313     1  0.0000000  7.9496000  1
   3311   3310   3312   3313     1  180.0000771  9.6232000  2
   3315   3318   3321   3322     1  0.0000000  0.6508444  3
   3315   3318   3321   3323     1  0.0000000  0.6508444  3
   3316   3315   3318   3321     1  0.0000000  0.6508444  3
   3316   3315   3318   3319     1  0.0000000  0.6508444  3
   3316   3315   3318   3320     1  0.0000000  0.6508444  3
   3317   3315   3318   3321     1  0.0000000  0.6508444  3
   3317   3315   3318   3319     1  0.0000000  0.6508444  3
   3317   3315   3318   3320     1  0.0000000  0.6508444  3
   3319   3318   3321   3324     1  0.0000000  0.6508444  3
   3319   3318   3321   3322     1  0.0000000  0.6508444  3
   3319   3318   3321   3323     1  0.0000000  0.6508444  3
   3319   3318   3315   3345     1  0.0000000  1.0460000  1
   3319   3318   3315   3345     1  0.0000000  0.0000000  3
   3320   3318   3321   3324     1  0.0000000  0.6508444  3
   3320   3318   3321   3322     1  0.0000000  0.6508444  3
   3320   3318   3321   3323     1  0.0000000  0.6508444  3
   3320   3318   3315   3345     1  0.0000000  1.0460000  1
   3320   3318   3315   3345     1  0.0000000  0.0000000  3
   3321   3324   3325   3326     1  0.0000000  1.2552000  3
   3321   3324   3325   3327     1  0.0000000  1.2552000  3
   3321   3324   3335   3336     1  0.0000000  1.2552000  3
   3321   3324   3335   3337     1  0.0000000  1.2552000  3
   3322   3321   3324   3325     1  0.0000000  1.2552000  3
   3322   3321   3324   3335     1  0.0000000  1.2552000  3
   3323   3321   3324   3325     1  0.0000000  1.2552000  3
   3323   3321   3324   3335     1  0.0000000  1.2552000  3
   3324   3325   3328   3329     1  0.0000000  0.6508444  3
   3324   3325   3328   3330     1  0.0000000  0.6508444  3
   3324   3335   3338   3339     1  0.0000000  0.6508444  3
   3324   3335   3338   3340     1  0.0000000  0.6508444  3
   3325   3324   3335   3336     1  0.0000000  1.2552000  3
   3325   3324   3335   3337     1  0.0000000  1.2552000  3
   3326   3325   3328   3331     1  0.0000000  0.6508444  3
   3326   3325   3328   3329     1  0.0000000  0.6508444  3
   3326   3325   3328   3330     1  0.0000000  0.6508444  3
   3326   3325   3324   3335     1  0.0000000  1.2552000  3
   3327   3325   3328   3331     1  0.0000000  0.6508444  3
   3327   3325   3328   3329     1  0.0000000  0.6508444  3
   3327   3325   3328   3330     1  0.0000000  0.6508444  3
   3327   3325   3324   3335     1  0.0000000  1.2552000  3
   3328   3331   3333   3334     1  180.0000771  9.6232000  2
   3329   3328   3331   3332     1  0.0000000  3.3472000  1
   3329   3328   3331   3332     1  0.0000000  0.0000000  2
   3329   3328   3331   3332     1  180.0000771  0.3347200  3
   3329   3328   3331   3333     1  180.0000771  0.0000000  2
   3330   3328   3331   3332     1  0.0000000  3.3472000  1
   3330   3328   3331   3332     1  0.0000000  0.0000000  2
   3330   3328   3331   3332     1  180.0000771  0.3347200  3
   3330   3328   3331   3333     1  180.0000771  0.0000000  2
   3332   3331   3333   3334     1  0.0000000  7.9496000  1
   3332   3331   3333   3334     1  180.0000771  9.6232000  2
   3336   3335   3338   3341     1  0.0000000  0.6508444  3
   3336   3335   3338   3339     1  0.0000000  0.6508444  3
   3336   3335   3338   3340     1  0.0000000  0.6508444  3
   3337   3335   3338   3341     1  0.0000000  0.6508444  3
   3337   3335   3338   3339     1  0.0000000  0.6508444  3
   3337   3335   3338   3340     1  0.0000000  0.6508444  3
   3338   3341   3343   3344     1  180.0000771  9.6232000  2
   3339   3338   3341   3342     1  0.0000000  3.3472000  1
   3339   3338   3341   3342     1  0.0000000  0.0000000  2
   3339   3338   3341   3342     1  180.0000771  0.3347200  3
   3339   3338   3341   3343     1  180.0000771  0.0000000  2
   3340   3338   3341   3342     1  0.0000000  3.3472000  1
   3340   3338   3341   3342     1  0.0000000  0.0000000  2
   3340   3338   3341   3342     1  180.0000771  0.3347200  3
   3340   3338   3341   3343     1  180.0000771  0.0000000  2
   3342   3341   3343   3344     1  0.0000000  7.9496000  1
   3342   3341   3343   3344     1  180.0000771  9.6232000  2
   3346   3349   3352   3353     1  0.0000000  0.6508444  3
   3346   3349   3352   3354     1  0.0000000  0.6508444  3
   3347   3346   3349   3352     1  0.0000000  0.6508444  3
   3347   3346   3349   3350     1  0.0000000  0.6508444  3
   3347   3346   3349   3351     1  0.0000000  0.6508444  3
   3348   3346   3349   3352     1  0.0000000  0.6508444  3
   3348   3346   3349   3350     1  0.0000000  0.6508444  3
   3348   3346   3349   3351     1  0.0000000  0.6508444  3
   3350   3349   3346   3376     1  0.0000000  1.0460000  1
   3350   3349   3346   3376     1  0.0000000  0.0000000  3
   3350   3349   3352   3355     1  0.0000000  0.6508444  3
   3350   3349   3352   3353     1  0.0000000  0.6508444  3
   3350   3349   3352   3354     1  0.0000000  0.6508444  3
   3351   3349   3346   3376     1  0.0000000  1.0460000  1
   3351   3349   3346   3376     1  0.0000000  0.0000000  3
   3351   3349   3352   3355     1  0.0000000  0.6508444  3
   3351   3349   3352   3353     1  0.0000000  0.6508444  3
   3351   3349   3352   3354     1  0.0000000  0.6508444  3
   3352   3355   3356   3357     1  0.0000000  1.2552000  3
   3352   3355   3356   3358     1  0.0000000  1.2552000  3
   3352   3355   3366   3367     1  0.0000000  1.2552000  3
   3352   3355   3366   3368     1  0.0000000  1.2552000  3
   3353   3352   3355   3356     1  0.0000000  1.2552000  3
   3353   3352   3355   3366     1  0.0000000  1.2552000  3
   3354   3352   3355   3356     1  0.0000000  1.2552000  3
   3354   3352   3355   3366     1  0.0000000  1.2552000  3
   3355   3356   3359   3360     1  0.0000000  0.6508444  3
   3355   3356   3359   3361     1  0.0000000  0.6508444  3
   3355   3366   3369   3370     1  0.0000000  0.6508444  3
   3355   3366   3369   3371     1  0.0000000  0.6508444  3
   3356   3355   3366   3367     1  0.0000000  1.2552000  3
   3356   3355   3366   3368     1  0.0000000  1.2552000  3
   3357   3356   3355   3366     1  0.0000000  1.2552000  3
   3357   3356   3359   3362     1  0.0000000  0.6508444  3
   3357   3356   3359   3360     1  0.0000000  0.6508444  3
   3357   3356   3359   3361     1  0.0000000  0.6508444  3
   3358   3356   3355   3366     1  0.0000000  1.2552000  3
   3358   3356   3359   3362     1  0.0000000  0.6508444  3
   3358   3356   3359   3360     1  0.0000000  0.6508444  3
   3358   3356   3359   3361     1  0.0000000  0.6508444  3
   3359   3362   3364   3365     1  180.0000771  9.6232000  2
   3360   3359   3362   3363     1  0.0000000  3.3472000  1
   3360   3359   3362   3363     1  0.0000000  0.0000000  2
   3360   3359   3362   3363     1  180.0000771  0.3347200  3
   3360   3359   3362   3364     1  180.0000771  0.0000000  2
   3361   3359   3362   3363     1  0.0000000  3.3472000  1
   3361   3359   3362   3363     1  0.0000000  0.0000000  2
   3361   3359   3362   3363     1  180.0000771  0.3347200  3
   3361   3359   3362   3364     1  180.0000771  0.0000000  2
   3363   3362   3364   3365     1  0.0000000  7.9496000  1
   3363   3362   3364   3365     1  180.0000771  9.6232000  2
   3367   3366   3369   3372     1  0.0000000  0.6508444  3
   3367   3366   3369   3370     1  0.0000000  0.6508444  3
   3367   3366   3369   3371     1  0.0000000  0.6508444  3
   3368   3366   3369   3372     1  0.0000000  0.6508444  3
   3368   3366   3369   3370     1  0.0000000  0.6508444  3
   3368   3366   3369   3371     1  0.0000000  0.6508444  3
   3369   3372   3374   3375     1  180.0000771  9.6232000  2
   3370   3369   3372   3373     1  0.0000000  3.3472000  1
   3370   3369   3372   3373     1  0.0000000  0.0000000  2
   3370   3369   3372   3373     1  180.0000771  0.3347200  3
   3370   3369   3372   3374     1  180.0000771  0.0000000  2
   3371   3369   3372   3373     1  0.0000000  3.3472000  1
   3371   3369   3372   3373     1  0.0000000  0.0000000  2
   3371   3369   3372   3373     1  180.0000771  0.3347200  3
   3371   3369   3372   3374     1  180.0000771  0.0000000  2
   3373   3372   3374   3375     1  0.0000000  7.9496000  1
   3373   3372   3374   3375     1  180.0000771  9.6232000  2
   3377   3380   3383   3384     1  0.0000000  0.6508444  3
   3377   3380   3383   3385     1  0.0000000  0.6508444  3
   3378   3377   3380   3383     1  0.0000000  0.6508444  3
   3378   3377   3380   3381     1  0.0000000  0.6508444  3
   3378   3377   3380   3382     1  0.0000000  0.6508444  3
   3379   3377   3380   3383     1  0.0000000  0.6508444  3
   3379   3377   3380   3381     1  0.0000000  0.6508444  3
   3379   3377   3380   3382     1  0.0000000  0.6508444  3
   3381   3380   3383   3386     1  0.0000000  0.6508444  3
   3381   3380   3383   3384     1  0.0000000  0.6508444  3
   3381   3380   3383   3385     1  0.0000000  0.6508444  3
   3381   3380   3377   3407     1  0.0000000  1.0460000  1
   3381   3380   3377   3407     1  0.0000000  0.0000000  3
   3382   3380   3383   3386     1  0.0000000  0.6508444  3
   3382   3380   3383   3384     1  0.0000000  0.6508444  3
   3382   3380   3383   3385     1  0.0000000  0.6508444  3
   3382   3380   3377   3407     1  0.0000000  1.0460000  1
   3382   3380   3377   3407     1  0.0000000  0.0000000  3
   3383   3386   3387   3388     1  0.0000000  1.2552000  3
   3383   3386   3387   3389     1  0.0000000  1.2552000  3
   3383   3386   3397   3398     1  0.0000000  1.2552000  3
   3383   3386   3397   3399     1  0.0000000  1.2552000  3
   3384   3383   3386   3387     1  0.0000000  1.2552000  3
   3384   3383   3386   3397     1  0.0000000  1.2552000  3
   3385   3383   3386   3387     1  0.0000000  1.2552000  3
   3385   3383   3386   3397     1  0.0000000  1.2552000  3
   3386   3387   3390   3391     1  0.0000000  0.6508444  3
   3386   3387   3390   3392     1  0.0000000  0.6508444  3
   3386   3397   3400   3401     1  0.0000000  0.6508444  3
   3386   3397   3400   3402     1  0.0000000  0.6508444  3
   3387   3386   3397   3398     1  0.0000000  1.2552000  3
   3387   3386   3397   3399     1  0.0000000  1.2552000  3
   3388   3387   3390   3393     1  0.0000000  0.6508444  3
   3388   3387   3390   3391     1  0.0000000  0.6508444  3
   3388   3387   3390   3392     1  0.0000000  0.6508444  3
   3388   3387   3386   3397     1  0.0000000  1.2552000  3
   3389   3387   3390   3393     1  0.0000000  0.6508444  3
   3389   3387   3390   3391     1  0.0000000  0.6508444  3
   3389   3387   3390   3392     1  0.0000000  0.6508444  3
   3389   3387   3386   3397     1  0.0000000  1.2552000  3
   3390   3393   3395   3396     1  180.0000771  9.6232000  2
   3391   3390   3393   3394     1  0.0000000  3.3472000  1
   3391   3390   3393   3394     1  0.0000000  0.0000000  2
   3391   3390   3393   3394     1  180.0000771  0.3347200  3
   3391   3390   3393   3395     1  180.0000771  0.0000000  2
   3392   3390   3393   3394     1  0.0000000  3.3472000  1
   3392   3390   3393   3394     1  0.0000000  0.0000000  2
   3392   3390   3393   3394     1  180.0000771  0.3347200  3
   3392   3390   3393   3395     1  180.0000771  0.0000000  2
   3394   3393   3395   3396     1  0.0000000  7.9496000  1
   3394   3393   3395   3396     1  180.0000771  9.6232000  2
   3398   3397   3400   3403     1  0.0000000  0.6508444  3
   3398   3397   3400   3401     1  0.0000000  0.6508444  3
   3398   3397   3400   3402     1  0.0000000  0.6508444  3
   3399   3397   3400   3403     1  0.0000000  0.6508444  3
   3399   3397   3400   3401     1  0.0000000  0.6508444  3
   3399   3397   3400   3402     1  0.0000000  0.6508444  3
   3400   3403   3405   3406     1  180.0000771  9.6232000  2
   3401   3400   3403   3404     1  0.0000000  3.3472000  1
   3401   3400   3403   3404     1  0.0000000  0.0000000  2
   3401   3400   3403   3404     1  180.0000771  0.3347200  3
   3401   3400   3403   3405     1  180.0000771  0.0000000  2
   3402   3400   3403   3404     1  0.0000000  3.3472000  1
   3402   3400   3403   3404     1  0.0000000  0.0000000  2
   3402   3400   3403   3404     1  180.0000771  0.3347200  3
   3402   3400   3403   3405     1  180.0000771  0.0000000  2
   3404   3403   3405   3406     1  0.0000000  7.9496000  1
   3404   3403   3405   3406     1  180.0000771  9.6232000  2
   3408   3411   3414   3415     1  0.0000000  0.6508444  3
   3408   3411   3414   3416     1  0.0000000  0.6508444  3
   3409   3408   3411   3414     1  0.0000000  0.6508444  3
   3409   3408   3411   3412     1  0.0000000  0.6508444  3
   3409   3408   3411   3413     1  0.0000000  0.6508444  3
   3410   3408   3411   3414     1  0.0000000  0.6508444  3
   3410   3408   3411   3412     1  0.0000000  0.6508444  3
   3410   3408   3411   3413     1  0.0000000  0.6508444  3
   3412   3411   3408   3438     1  0.0000000  1.0460000  1
   3412   3411   3408   3438     1  0.0000000  0.0000000  3
   3412   3411   3414   3417     1  0.0000000  0.6508444  3
   3412   3411   3414   3415     1  0.0000000  0.6508444  3
   3412   3411   3414   3416     1  0.0000000  0.6508444  3
   3413   3411   3408   3438     1  0.0000000  1.0460000  1
   3413   3411   3408   3438     1  0.0000000  0.0000000  3
   3413   3411   3414   3417     1  0.0000000  0.6508444  3
   3413   3411   3414   3415     1  0.0000000  0.6508444  3
   3413   3411   3414   3416     1  0.0000000  0.6508444  3
   3414   3417   3418   3419     1  0.0000000  1.2552000  3
   3414   3417   3418   3420     1  0.0000000  1.2552000  3
   3414   3417   3428   3429     1  0.0000000  1.2552000  3
   3414   3417   3428   3430     1  0.0000000  1.2552000  3
   3415   3414   3417   3418     1  0.0000000  1.2552000  3
   3415   3414   3417   3428     1  0.0000000  1.2552000  3
   3416   3414   3417   3418     1  0.0000000  1.2552000  3
   3416   3414   3417   3428     1  0.0000000  1.2552000  3
   3417   3418   3421   3422     1  0.0000000  0.6508444  3
   3417   3418   3421   3423     1  0.0000000  0.6508444  3
   3417   3428   3431   3432     1  0.0000000  0.6508444  3
   3417   3428   3431   3433     1  0.0000000  0.6508444  3
   3418   3417   3428   3429     1  0.0000000  1.2552000  3
   3418   3417   3428   3430     1  0.0000000  1.2552000  3
   3419   3418   3417   3428     1  0.0000000  1.2552000  3
   3419   3418   3421   3424     1  0.0000000  0.6508444  3
   3419   3418   3421   3422     1  0.0000000  0.6508444  3
   3419   3418   3421   3423     1  0.0000000  0.6508444  3
   3420   3418   3417   3428     1  0.0000000  1.2552000  3
   3420   3418   3421   3424     1  0.0000000  0.6508444  3
   3420   3418   3421   3422     1  0.0000000  0.6508444  3
   3420   3418   3421   3423     1  0.0000000  0.6508444  3
   3421   3424   3426   3427     1  180.0000771  9.6232000  2
   3422   3421   3424   3425     1  0.0000000  3.3472000  1
   3422   3421   3424   3425     1  0.0000000  0.0000000  2
   3422   3421   3424   3425     1  180.0000771  0.3347200  3
   3422   3421   3424   3426     1  180.0000771  0.0000000  2
   3423   3421   3424   3425     1  0.0000000  3.3472000  1
   3423   3421   3424   3425     1  0.0000000  0.0000000  2
   3423   3421   3424   3425     1  180.0000771  0.3347200  3
   3423   3421   3424   3426     1  180.0000771  0.0000000  2
   3425   3424   3426   3427     1  0.0000000  7.9496000  1
   3425   3424   3426   3427     1  180.0000771  9.6232000  2
   3429   3428   3431   3434     1  0.0000000  0.6508444  3
   3429   3428   3431   3432     1  0.0000000  0.6508444  3
   3429   3428   3431   3433     1  0.0000000  0.6508444  3
   3430   3428   3431   3434     1  0.0000000  0.6508444  3
   3430   3428   3431   3432     1  0.0000000  0.6508444  3
   3430   3428   3431   3433     1  0.0000000  0.6508444  3
   3431   3434   3436   3437     1  180.0000771  9.6232000  2
   3432   3431   3434   3435     1  0.0000000  3.3472000  1
   3432   3431   3434   3435     1  0.0000000  0.0000000  2
   3432   3431   3434   3435     1  180.0000771  0.3347200  3
   3432   3431   3434   3436     1  180.0000771  0.0000000  2
   3433   3431   3434   3435     1  0.0000000  3.3472000  1
   3433   3431   3434   3435     1  0.0000000  0.0000000  2
   3433   3431   3434   3435     1  180.0000771  0.3347200  3
   3433   3431   3434   3436     1  180.0000771  0.0000000  2
   3435   3434   3436   3437     1  0.0000000  7.9496000  1
   3435   3434   3436   3437     1  180.0000771  9.6232000  2
   3439   3442   3445   3446     1  0.0000000  0.6508444  3
   3439   3442   3445   3447     1  0.0000000  0.6508444  3
   3440   3439   3442   3445     1  0.0000000  0.6508444  3
   3440   3439   3442   3443     1  0.0000000  0.6508444  3
   3440   3439   3442   3444     1  0.0000000  0.6508444  3
   3441   3439   3442   3445     1  0.0000000  0.6508444  3
   3441   3439   3442   3443     1  0.0000000  0.6508444  3
   3441   3439   3442   3444     1  0.0000000  0.6508444  3
   3443   3442   3445   3448     1  0.0000000  0.6508444  3
   3443   3442   3445   3446     1  0.0000000  0.6508444  3
   3443   3442   3445   3447     1  0.0000000  0.6508444  3
   3443   3442   3439   3469     1  0.0000000  1.0460000  1
   3443   3442   3439   3469     1  0.0000000  0.0000000  3
   3444   3442   3445   3448     1  0.0000000  0.6508444  3
   3444   3442   3445   3446     1  0.0000000  0.6508444  3
   3444   3442   3445   3447     1  0.0000000  0.6508444  3
   3444   3442   3439   3469     1  0.0000000  1.0460000  1
   3444   3442   3439   3469     1  0.0000000  0.0000000  3
   3445   3448   3449   3450     1  0.0000000  1.2552000  3
   3445   3448   3449   3451     1  0.0000000  1.2552000  3
   3445   3448   3459   3460     1  0.0000000  1.2552000  3
   3445   3448   3459   3461     1  0.0000000  1.2552000  3
   3446   3445   3448   3449     1  0.0000000  1.2552000  3
   3446   3445   3448   3459     1  0.0000000  1.2552000  3
   3447   3445   3448   3449     1  0.0000000  1.2552000  3
   3447   3445   3448   3459     1  0.0000000  1.2552000  3
   3448   3449   3452   3453     1  0.0000000  0.6508444  3
   3448   3449   3452   3454     1  0.0000000  0.6508444  3
   3448   3459   3462   3463     1  0.0000000  0.6508444  3
   3448   3459   3462   3464     1  0.0000000  0.6508444  3
   3449   3448   3459   3460     1  0.0000000  1.2552000  3
   3449   3448   3459   3461     1  0.0000000  1.2552000  3
   3450   3449   3452   3455     1  0.0000000  0.6508444  3
   3450   3449   3452   3453     1  0.0000000  0.6508444  3
   3450   3449   3452   3454     1  0.0000000  0.6508444  3
   3450   3449   3448   3459     1  0.0000000  1.2552000  3
   3451   3449   3452   3455     1  0.0000000  0.6508444  3
   3451   3449   3452   3453     1  0.0000000  0.6508444  3
   3451   3449   3452   3454     1  0.0000000  0.6508444  3
   3451   3449   3448   3459     1  0.0000000  1.2552000  3
   3452   3455   3457   3458     1  180.0000771  9.6232000  2
   3453   3452   3455   3456     1  0.0000000  3.3472000  1
   3453   3452   3455   3456     1  0.0000000  0.0000000  2
   3453   3452   3455   3456     1  180.0000771  0.3347200  3
   3453   3452   3455   3457     1  180.0000771  0.0000000  2
   3454   3452   3455   3456     1  0.0000000  3.3472000  1
   3454   3452   3455   3456     1  0.0000000  0.0000000  2
   3454   3452   3455   3456     1  180.0000771  0.3347200  3
   3454   3452   3455   3457     1  180.0000771  0.0000000  2
   3456   3455   3457   3458     1  0.0000000  7.9496000  1
   3456   3455   3457   3458     1  180.0000771  9.6232000  2
   3460   3459   3462   3465     1  0.0000000  0.6508444  3
   3460   3459   3462   3463     1  0.0000000  0.6508444  3
   3460   3459   3462   3464     1  0.0000000  0.6508444  3
   3461   3459   3462   3465     1  0.0000000  0.6508444  3
   3461   3459   3462   3463     1  0.0000000  0.6508444  3
   3461   3459   3462   3464     1  0.0000000  0.6508444  3
   3462   3465   3467   3468     1  180.0000771  9.6232000  2
   3463   3462   3465   3466     1  0.0000000  3.3472000  1
   3463   3462   3465   3466     1  0.0000000  0.0000000  2
   3463   3462   3465   3466     1  180.0000771  0.3347200  3
   3463   3462   3465   3467     1  180.0000771  0.0000000  2
   3464   3462   3465   3466     1  0.0000000  3.3472000  1
   3464   3462   3465   3466     1  0.0000000  0.0000000  2
   3464   3462   3465   3466     1  180.0000771  0.3347200  3
   3464   3462   3465   3467     1  180.0000771  0.0000000  2
   3466   3465   3467   3468     1  0.0000000  7.9496000  1
   3466   3465   3467   3468     1  180.0000771  9.6232000  2
   3470   3473   3476   3477     1  0.0000000  0.6508444  3
   3470   3473   3476   3478     1  0.0000000  0.6508444  3
   3471   3470   3473   3476     1  0.0000000  0.6508444  3
   3471   3470   3473   3474     1  0.0000000  0.6508444  3
   3471   3470   3473   3475     1  0.0000000  0.6508444  3
   3472   3470   3473   3476     1  0.0000000  0.6508444  3
   3472   3470   3473   3474     1  0.0000000  0.6508444  3
   3472   3470   3473   3475     1  0.0000000  0.6508444  3
   3474   3473   3470   3500     1  0.0000000  1.0460000  1
   3474   3473   3470   3500     1  0.0000000  0.0000000  3
   3474   3473   3476   3479     1  0.0000000  0.6508444  3
   3474   3473   3476   3477     1  0.0000000  0.6508444  3
   3474   3473   3476   3478     1  0.0000000  0.6508444  3
   3475   3473   3470   3500     1  0.0000000  1.0460000  1
   3475   3473   3470   3500     1  0.0000000  0.0000000  3
   3475   3473   3476   3479     1  0.0000000  0.6508444  3
   3475   3473   3476   3477     1  0.0000000  0.6508444  3
   3475   3473   3476   3478     1  0.0000000  0.6508444  3
   3476   3479   3480   3481     1  0.0000000  1.2552000  3
   3476   3479   3480   3482     1  0.0000000  1.2552000  3
   3476   3479   3490   3491     1  0.0000000  1.2552000  3
   3476   3479   3490   3492     1  0.0000000  1.2552000  3
   3477   3476   3479   3480     1  0.0000000  1.2552000  3
   3477   3476   3479   3490     1  0.0000000  1.2552000  3
   3478   3476   3479   3480     1  0.0000000  1.2552000  3
   3478   3476   3479   3490     1  0.0000000  1.2552000  3
   3479   3480   3483   3484     1  0.0000000  0.6508444  3
   3479   3480   3483   3485     1  0.0000000  0.6508444  3
   3479   3490   3493   3494     1  0.0000000  0.6508444  3
   3479   3490   3493   3495     1  0.0000000  0.6508444  3
   3480   3479   3490   3491     1  0.0000000  1.2552000  3
   3480   3479   3490   3492     1  0.0000000  1.2552000  3
   3481   3480   3479   3490     1  0.0000000  1.2552000  3
   3481   3480   3483   3486     1  0.0000000  0.6508444  3
   3481   3480   3483   3484     1  0.0000000  0.6508444  3
   3481   3480   3483   3485     1  0.0000000  0.6508444  3
   3482   3480   3479   3490     1  0.0000000  1.2552000  3
   3482   3480   3483   3486     1  0.0000000  0.6508444  3
   3482   3480   3483   3484     1  0.0000000  0.6508444  3
   3482   3480   3483   3485     1  0.0000000  0.6508444  3
   3483   3486   3488   3489     1  180.0000771  9.6232000  2
   3484   3483   3486   3487     1  0.0000000  3.3472000  1
   3484   3483   3486   3487     1  0.0000000  0.0000000  2
   3484   3483   3486   3487     1  180.0000771  0.3347200  3
   3484   3483   3486   3488     1  180.0000771  0.0000000  2
   3485   3483   3486   3487     1  0.0000000  3.3472000  1
   3485   3483   3486   3487     1  0.0000000  0.0000000  2
   3485   3483   3486   3487     1  180.0000771  0.3347200  3
   3485   3483   3486   3488     1  180.0000771  0.0000000  2
   3487   3486   3488   3489     1  0.0000000  7.9496000  1
   3487   3486   3488   3489     1  180.0000771  9.6232000  2
   3491   3490   3493   3496     1  0.0000000  0.6508444  3
   3491   3490   3493   3494     1  0.0000000  0.6508444  3
   3491   3490   3493   3495     1  0.0000000  0.6508444  3
   3492   3490   3493   3496     1  0.0000000  0.6508444  3
   3492   3490   3493   3494     1  0.0000000  0.6508444  3
   3492   3490   3493   3495     1  0.0000000  0.6508444  3
   3493   3496   3498   3499     1  180.0000771  9.6232000  2
   3494   3493   3496   3497     1  0.0000000  3.3472000  1
   3494   3493   3496   3497     1  0.0000000  0.0000000  2
   3494   3493   3496   3497     1  180.0000771  0.3347200  3
   3494   3493   3496   3498     1  180.0000771  0.0000000  2
   3495   3493   3496   3497     1  0.0000000  3.3472000  1
   3495   3493   3496   3497     1  0.0000000  0.0000000  2
   3495   3493   3496   3497     1  180.0000771  0.3347200  3
   3495   3493   3496   3498     1  180.0000771  0.0000000  2
   3497   3496   3498   3499     1  0.0000000  7.9496000  1
   3497   3496   3498   3499     1  180.0000771  9.6232000  2
   3501   3504   3507   3508     1  0.0000000  0.6508444  3
   3501   3504   3507   3509     1  0.0000000  0.6508444  3
   3502   3501   3504   3507     1  0.0000000  0.6508444  3
   3502   3501   3504   3505     1  0.0000000  0.6508444  3
   3502   3501   3504   3506     1  0.0000000  0.6508444  3
   3503   3501   3504   3507     1  0.0000000  0.6508444  3
   3503   3501   3504   3505     1  0.0000000  0.6508444  3
   3503   3501   3504   3506     1  0.0000000  0.6508444  3
   3505   3504   3507   3510     1  0.0000000  0.6508444  3
   3505   3504   3507   3508     1  0.0000000  0.6508444  3
   3505   3504   3507   3509     1  0.0000000  0.6508444  3
   3505   3504   3501   3531     1  0.0000000  1.0460000  1
   3505   3504   3501   3531     1  0.0000000  0.0000000  3
   3506   3504   3507   3510     1  0.0000000  0.6508444  3
   3506   3504   3507   3508     1  0.0000000  0.6508444  3
   3506   3504   3507   3509     1  0.0000000  0.6508444  3
   3506   3504   3501   3531     1  0.0000000  1.0460000  1
   3506   3504   3501   3531     1  0.0000000  0.0000000  3
   3507   3510   3511   3512     1  0.0000000  1.2552000  3
   3507   3510   3511   3513     1  0.0000000  1.2552000  3
   3507   3510   3521   3522     1  0.0000000  1.2552000  3
   3507   3510   3521   3523     1  0.0000000  1.2552000  3
   3508   3507   3510   3511     1  0.0000000  1.2552000  3
   3508   3507   3510   3521     1  0.0000000  1.2552000  3
   3509   3507   3510   3511     1  0.0000000  1.2552000  3
   3509   3507   3510   3521     1  0.0000000  1.2552000  3
   3510   3511   3514   3515     1  0.0000000  0.6508444  3
   3510   3511   3514   3516     1  0.0000000  0.6508444  3
   3510   3521   3524   3525     1  0.0000000  0.6508444  3
   3510   3521   3524   3526     1  0.0000000  0.6508444  3
   3511   3510   3521   3522     1  0.0000000  1.2552000  3
   3511   3510   3521   3523     1  0.0000000  1.2552000  3
   3512   3511   3514   3517     1  0.0000000  0.6508444  3
   3512   3511   3514   3515     1  0.0000000  0.6508444  3
   3512   3511   3514   3516     1  0.0000000  0.6508444  3
   3512   3511   3510   3521     1  0.0000000  1.2552000  3
   3513   3511   3514   3517     1  0.0000000  0.6508444  3
   3513   3511   3514   3515     1  0.0000000  0.6508444  3
   3513   3511   3514   3516     1  0.0000000  0.6508444  3
   3513   3511   3510   3521     1  0.0000000  1.2552000  3
   3514   3517   3519   3520     1  180.0000771  9.6232000  2
   3515   3514   3517   3518     1  0.0000000  3.3472000  1
   3515   3514   3517   3518     1  0.0000000  0.0000000  2
   3515   3514   3517   3518     1  180.0000771  0.3347200  3
   3515   3514   3517   3519     1  180.0000771  0.0000000  2
   3516   3514   3517   3518     1  0.0000000  3.3472000  1
   3516   3514   3517   3518     1  0.0000000  0.0000000  2
   3516   3514   3517   3518     1  180.0000771  0.3347200  3
   3516   3514   3517   3519     1  180.0000771  0.0000000  2
   3518   3517   3519   3520     1  0.0000000  7.9496000  1
   3518   3517   3519   3520     1  180.0000771  9.6232000  2
   3522   3521   3524   3527     1  0.0000000  0.6508444  3
   3522   3521   3524   3525     1  0.0000000  0.6508444  3
   3522   3521   3524   3526     1  0.0000000  0.6508444  3
   3523   3521   3524   3527     1  0.0000000  0.6508444  3
   3523   3521   3524   3525     1  0.0000000  0.6508444  3
   3523   3521   3524   3526     1  0.0000000  0.6508444  3
   3524   3527   3529   3530     1  180.0000771  9.6232000  2
   3525   3524   3527   3528     1  0.0000000  3.3472000  1
   3525   3524   3527   3528     1  0.0000000  0.0000000  2
   3525   3524   3527   3528     1  180.0000771  0.3347200  3
   3525   3524   3527   3529     1  180.0000771  0.0000000  2
   3526   3524   3527   3528     1  0.0000000  3.3472000  1
   3526   3524   3527   3528     1  0.0000000  0.0000000  2
   3526   3524   3527   3528     1  180.0000771  0.3347200  3
   3526   3524   3527   3529     1  180.0000771  0.0000000  2
   3528   3527   3529   3530     1  0.0000000  7.9496000  1
   3528   3527   3529   3530     1  180.0000771  9.6232000  2
   3532   3535   3538   3539     1  0.0000000  0.6508444  3
   3532   3535   3538   3540     1  0.0000000  0.6508444  3
   3533   3532   3535   3538     1  0.0000000  0.6508444  3
   3533   3532   3535   3536     1  0.0000000  0.6508444  3
   3533   3532   3535   3537     1  0.0000000  0.6508444  3
   3534   3532   3535   3538     1  0.0000000  0.6508444  3
   3534   3532   3535   3536     1  0.0000000  0.6508444  3
   3534   3532   3535   3537     1  0.0000000  0.6508444  3
   3536   3535   3532   3562     1  0.0000000  1.0460000  1
   3536   3535   3532   3562     1  0.0000000  0.0000000  3
   3536   3535   3538   3541     1  0.0000000  0.6508444  3
   3536   3535   3538   3539     1  0.0000000  0.6508444  3
   3536   3535   3538   3540     1  0.0000000  0.6508444  3
   3537   3535   3532   3562     1  0.0000000  1.0460000  1
   3537   3535   3532   3562     1  0.0000000  0.0000000  3
   3537   3535   3538   3541     1  0.0000000  0.6508444  3
   3537   3535   3538   3539     1  0.0000000  0.6508444  3
   3537   3535   3538   3540     1  0.0000000  0.6508444  3
   3538   3541   3542   3543     1  0.0000000  1.2552000  3
   3538   3541   3542   3544     1  0.0000000  1.2552000  3
   3538   3541   3552   3553     1  0.0000000  1.2552000  3
   3538   3541   3552   3554     1  0.0000000  1.2552000  3
   3539   3538   3541   3542     1  0.0000000  1.2552000  3
   3539   3538   3541   3552     1  0.0000000  1.2552000  3
   3540   3538   3541   3542     1  0.0000000  1.2552000  3
   3540   3538   3541   3552     1  0.0000000  1.2552000  3
   3541   3542   3545   3546     1  0.0000000  0.6508444  3
   3541   3542   3545   3547     1  0.0000000  0.6508444  3
   3541   3552   3555   3556     1  0.0000000  0.6508444  3
   3541   3552   3555   3557     1  0.0000000  0.6508444  3
   3542   3541   3552   3553     1  0.0000000  1.2552000  3
   3542   3541   3552   3554     1  0.0000000  1.2552000  3
   3543   3542   3541   3552     1  0.0000000  1.2552000  3
   3543   3542   3545   3548     1  0.0000000  0.6508444  3
   3543   3542   3545   3546     1  0.0000000  0.6508444  3
   3543   3542   3545   3547     1  0.0000000  0.6508444  3
   3544   3542   3541   3552     1  0.0000000  1.2552000  3
   3544   3542   3545   3548     1  0.0000000  0.6508444  3
   3544   3542   3545   3546     1  0.0000000  0.6508444  3
   3544   3542   3545   3547     1  0.0000000  0.6508444  3
   3545   3548   3550   3551     1  180.0000771  9.6232000  2
   3546   3545   3548   3549     1  0.0000000  3.3472000  1
   3546   3545   3548   3549     1  0.0000000  0.0000000  2
   3546   3545   3548   3549     1  180.0000771  0.3347200  3
   3546   3545   3548   3550     1  180.0000771  0.0000000  2
   3547   3545   3548   3549     1  0.0000000  3.3472000  1
   3547   3545   3548   3549     1  0.0000000  0.0000000  2
   3547   3545   3548   3549     1  180.0000771  0.3347200  3
   3547   3545   3548   3550     1  180.0000771  0.0000000  2
   3549   3548   3550   3551     1  0.0000000  7.9496000  1
   3549   3548   3550   3551     1  180.0000771  9.6232000  2
   3553   3552   3555   3558     1  0.0000000  0.6508444  3
   3553   3552   3555   3556     1  0.0000000  0.6508444  3
   3553   3552   3555   3557     1  0.0000000  0.6508444  3
   3554   3552   3555   3558     1  0.0000000  0.6508444  3
   3554   3552   3555   3556     1  0.0000000  0.6508444  3
   3554   3552   3555   3557     1  0.0000000  0.6508444  3
   3555   3558   3560   3561     1  180.0000771  9.6232000  2
   3556   3555   3558   3559     1  0.0000000  3.3472000  1
   3556   3555   3558   3559     1  0.0000000  0.0000000  2
   3556   3555   3558   3559     1  180.0000771  0.3347200  3
   3556   3555   3558   3560     1  180.0000771  0.0000000  2
   3557   3555   3558   3559     1  0.0000000  3.3472000  1
   3557   3555   3558   3559     1  0.0000000  0.0000000  2
   3557   3555   3558   3559     1  180.0000771  0.3347200  3
   3557   3555   3558   3560     1  180.0000771  0.0000000  2
   3559   3558   3560   3561     1  0.0000000  7.9496000  1
   3559   3558   3560   3561     1  180.0000771  9.6232000  2
   3563   3566   3569   3570     1  0.0000000  0.6508444  3
   3563   3566   3569   3571     1  0.0000000  0.6508444  3
   3564   3563   3566   3569     1  0.0000000  0.6508444  3
   3564   3563   3566   3567     1  0.0000000  0.6508444  3
   3564   3563   3566   3568     1  0.0000000  0.6508444  3
   3565   3563   3566   3569     1  0.0000000  0.6508444  3
   3565   3563   3566   3567     1  0.0000000  0.6508444  3
   3565   3563   3566   3568     1  0.0000000  0.6508444  3
   3567   3566   3569   3572     1  0.0000000  0.6508444  3
   3567   3566   3569   3570     1  0.0000000  0.6508444  3
   3567   3566   3569   3571     1  0.0000000  0.6508444  3
   3567   3566   3563   3593     1  0.0000000  1.0460000  1
   3567   3566   3563   3593     1  0.0000000  0.0000000  3
   3568   3566   3569   3572     1  0.0000000  0.6508444  3
   3568   3566   3569   3570     1  0.0000000  0.6508444  3
   3568   3566   3569   3571     1  0.0000000  0.6508444  3
   3568   3566   3563   3593     1  0.0000000  1.0460000  1
   3568   3566   3563   3593     1  0.0000000  0.0000000  3
   3569   3572   3573   3574     1  0.0000000  1.2552000  3
   3569   3572   3573   3575     1  0.0000000  1.2552000  3
   3569   3572   3583   3584     1  0.0000000  1.2552000  3
   3569   3572   3583   3585     1  0.0000000  1.2552000  3
   3570   3569   3572   3573     1  0.0000000  1.2552000  3
   3570   3569   3572   3583     1  0.0000000  1.2552000  3
   3571   3569   3572   3573     1  0.0000000  1.2552000  3
   3571   3569   3572   3583     1  0.0000000  1.2552000  3
   3572   3573   3576   3577     1  0.0000000  0.6508444  3
   3572   3573   3576   3578     1  0.0000000  0.6508444  3
   3572   3583   3586   3587     1  0.0000000  0.6508444  3
   3572   3583   3586   3588     1  0.0000000  0.6508444  3
   3573   3572   3583   3584     1  0.0000000  1.2552000  3
   3573   3572   3583   3585     1  0.0000000  1.2552000  3
   3574   3573   3576   3579     1  0.0000000  0.6508444  3
   3574   3573   3576   3577     1  0.0000000  0.6508444  3
   3574   3573   3576   3578     1  0.0000000  0.6508444  3
   3574   3573   3572   3583     1  0.0000000  1.2552000  3
   3575   3573   3576   3579     1  0.0000000  0.6508444  3
   3575   3573   3576   3577     1  0.0000000  0.6508444  3
   3575   3573   3576   3578     1  0.0000000  0.6508444  3
   3575   3573   3572   3583     1  0.0000000  1.2552000  3
   3576   3579   3581   3582     1  180.0000771  9.6232000  2
   3577   3576   3579   3580     1  0.0000000  3.3472000  1
   3577   3576   3579   3580     1  0.0000000  0.0000000  2
   3577   3576   3579   3580     1  180.0000771  0.3347200  3
   3577   3576   3579   3581     1  180.0000771  0.0000000  2
   3578   3576   3579   3580     1  0.0000000  3.3472000  1
   3578   3576   3579   3580     1  0.0000000  0.0000000  2
   3578   3576   3579   3580     1  180.0000771  0.3347200  3
   3578   3576   3579   3581     1  180.0000771  0.0000000  2
   3580   3579   3581   3582     1  0.0000000  7.9496000  1
   3580   3579   3581   3582     1  180.0000771  9.6232000  2
   3584   3583   3586   3589     1  0.0000000  0.6508444  3
   3584   3583   3586   3587     1  0.0000000  0.6508444  3
   3584   3583   3586   3588     1  0.0000000  0.6508444  3
   3585   3583   3586   3589     1  0.0000000  0.6508444  3
   3585   3583   3586   3587     1  0.0000000  0.6508444  3
   3585   3583   3586   3588     1  0.0000000  0.6508444  3
   3586   3589   3591   3592     1  180.0000771  9.6232000  2
   3587   3586   3589   3590     1  0.0000000  3.3472000  1
   3587   3586   3589   3590     1  0.0000000  0.0000000  2
   3587   3586   3589   3590     1  180.0000771  0.3347200  3
   3587   3586   3589   3591     1  180.0000771  0.0000000  2
   3588   3586   3589   3590     1  0.0000000  3.3472000  1
   3588   3586   3589   3590     1  0.0000000  0.0000000  2
   3588   3586   3589   3590     1  180.0000771  0.3347200  3
   3588   3586   3589   3591     1  180.0000771  0.0000000  2
   3590   3589   3591   3592     1  0.0000000  7.9496000  1
   3590   3589   3591   3592     1  180.0000771  9.6232000  2
   3594   3597   3600   3601     1  0.0000000  0.6508444  3
   3594   3597   3600   3602     1  0.0000000  0.6508444  3
   3595   3594   3597   3600     1  0.0000000  0.6508444  3
   3595   3594   3597   3598     1  0.0000000  0.6508444  3
   3595   3594   3597   3599     1  0.0000000  0.6508444  3
   3596   3594   3597   3600     1  0.0000000  0.6508444  3
   3596   3594   3597   3598     1  0.0000000  0.6508444  3
   3596   3594   3597   3599     1  0.0000000  0.6508444  3
   3598   3597   3594   3624     1  0.0000000  1.0460000  1
   3598   3597   3594   3624     1  0.0000000  0.0000000  3
   3598   3597   3600   3603     1  0.0000000  0.6508444  3
   3598   3597   3600   3601     1  0.0000000  0.6508444  3
   3598   3597   3600   3602     1  0.0000000  0.6508444  3
   3599   3597   3594   3624     1  0.0000000  1.0460000  1
   3599   3597   3594   3624     1  0.0000000  0.0000000  3
   3599   3597   3600   3603     1  0.0000000  0.6508444  3
   3599   3597   3600   3601     1  0.0000000  0.6508444  3
   3599   3597   3600   3602     1  0.0000000  0.6508444  3
   3600   3603   3604   3605     1  0.0000000  1.2552000  3
   3600   3603   3604   3606     1  0.0000000  1.2552000  3
   3600   3603   3614   3615     1  0.0000000  1.2552000  3
   3600   3603   3614   3616     1  0.0000000  1.2552000  3
   3601   3600   3603   3604     1  0.0000000  1.2552000  3
   3601   3600   3603   3614     1  0.0000000  1.2552000  3
   3602   3600   3603   3604     1  0.0000000  1.2552000  3
   3602   3600   3603   3614     1  0.0000000  1.2552000  3
   3603   3604   3607   3608     1  0.0000000  0.6508444  3
   3603   3604   3607   3609     1  0.0000000  0.6508444  3
   3603   3614   3617   3618     1  0.0000000  0.6508444  3
   3603   3614   3617   3619     1  0.0000000  0.6508444  3
   3604   3603   3614   3615     1  0.0000000  1.2552000  3
   3604   3603   3614   3616     1  0.0000000  1.2552000  3
   3605   3604   3603   3614     1  0.0000000  1.2552000  3
   3605   3604   3607   3610     1  0.0000000  0.6508444  3
   3605   3604   3607   3608     1  0.0000000  0.6508444  3
   3605   3604   3607   3609     1  0.0000000  0.6508444  3
   3606   3604   3603   3614     1  0.0000000  1.2552000  3
   3606   3604   3607   3610     1  0.0000000  0.6508444  3
   3606   3604   3607   3608     1  0.0000000  0.6508444  3
   3606   3604   3607   3609     1  0.0000000  0.6508444  3
   3607   3610   3612   3613     1  180.0000771  9.6232000  2
   3608   3607   3610   3611     1  0.0000000  3.3472000  1
   3608   3607   3610   3611     1  0.0000000  0.0000000  2
   3608   3607   3610   3611     1  180.0000771  0.3347200  3
   3608   3607   3610   3612     1  180.0000771  0.0000000  2
   3609   3607   3610   3611     1  0.0000000  3.3472000  1
   3609   3607   3610   3611     1  0.0000000  0.0000000  2
   3609   3607   3610   3611     1  180.0000771  0.3347200  3
   3609   3607   3610   3612     1  180.0000771  0.0000000  2
   3611   3610   3612   3613     1  0.0000000  7.9496000  1
   3611   3610   3612   3613     1  180.0000771  9.6232000  2
   3615   3614   3617   3620     1  0.0000000  0.6508444  3
   3615   3614   3617   3618     1  0.0000000  0.6508444  3
   3615   3614   3617   3619     1  0.0000000  0.6508444  3
   3616   3614   3617   3620     1  0.0000000  0.6508444  3
   3616   3614   3617   3618     1  0.0000000  0.6508444  3
   3616   3614   3617   3619     1  0.0000000  0.6508444  3
   3617   3620   3622   3623     1  180.0000771  9.6232000  2
   3618   3617   3620   3621     1  0.0000000  3.3472000  1
   3618   3617   3620   3621     1  0.0000000  0.0000000  2
   3618   3617   3620   3621     1  180.0000771  0.3347200  3
   3618   3617   3620   3622     1  180.0000771  0.0000000  2
   3619   3617   3620   3621     1  0.0000000  3.3472000  1
   3619   3617   3620   3621     1  0.0000000  0.0000000  2
   3619   3617   3620   3621     1  180.0000771  0.3347200  3
   3619   3617   3620   3622     1  180.0000771  0.0000000  2
   3621   3620   3622   3623     1  0.0000000  7.9496000  1
   3621   3620   3622   3623     1  180.0000771  9.6232000  2
   3625   3628   3631   3632     1  0.0000000  0.6508444  3
   3625   3628   3631   3633     1  0.0000000  0.6508444  3
   3626   3625   3628   3631     1  0.0000000  0.6508444  3
   3626   3625   3628   3629     1  0.0000000  0.6508444  3
   3626   3625   3628   3630     1  0.0000000  0.6508444  3
   3627   3625   3628   3631     1  0.0000000  0.6508444  3
   3627   3625   3628   3629     1  0.0000000  0.6508444  3
   3627   3625   3628   3630     1  0.0000000  0.6508444  3
   3629   3628   3631   3634     1  0.0000000  0.6508444  3
   3629   3628   3631   3632     1  0.0000000  0.6508444  3
   3629   3628   3631   3633     1  0.0000000  0.6508444  3
   3629   3628   3625   3655     1  0.0000000  1.0460000  1
   3629   3628   3625   3655     1  0.0000000  0.0000000  3
   3630   3628   3631   3634     1  0.0000000  0.6508444  3
   3630   3628   3631   3632     1  0.0000000  0.6508444  3
   3630   3628   3631   3633     1  0.0000000  0.6508444  3
   3630   3628   3625   3655     1  0.0000000  1.0460000  1
   3630   3628   3625   3655     1  0.0000000  0.0000000  3
   3631   3634   3635   3636     1  0.0000000  1.2552000  3
   3631   3634   3635   3637     1  0.0000000  1.2552000  3
   3631   3634   3645   3646     1  0.0000000  1.2552000  3
   3631   3634   3645   3647     1  0.0000000  1.2552000  3
   3632   3631   3634   3635     1  0.0000000  1.2552000  3
   3632   3631   3634   3645     1  0.0000000  1.2552000  3
   3633   3631   3634   3635     1  0.0000000  1.2552000  3
   3633   3631   3634   3645     1  0.0000000  1.2552000  3
   3634   3635   3638   3639     1  0.0000000  0.6508444  3
   3634   3635   3638   3640     1  0.0000000  0.6508444  3
   3634   3645   3648   3649     1  0.0000000  0.6508444  3
   3634   3645   3648   3650     1  0.0000000  0.6508444  3
   3635   3634   3645   3646     1  0.0000000  1.2552000  3
   3635   3634   3645   3647     1  0.0000000  1.2552000  3
   3636   3635   3638   3641     1  0.0000000  0.6508444  3
   3636   3635   3638   3639     1  0.0000000  0.6508444  3
   3636   3635   3638   3640     1  0.0000000  0.6508444  3
   3636   3635   3634   3645     1  0.0000000  1.2552000  3
   3637   3635   3638   3641     1  0.0000000  0.6508444  3
   3637   3635   3638   3639     1  0.0000000  0.6508444  3
   3637   3635   3638   3640     1  0.0000000  0.6508444  3
   3637   3635   3634   3645     1  0.0000000  1.2552000  3
   3638   3641   3643   3644     1  180.0000771  9.6232000  2
   3639   3638   3641   3642     1  0.0000000  3.3472000  1
   3639   3638   3641   3642     1  0.0000000  0.0000000  2
   3639   3638   3641   3642     1  180.0000771  0.3347200  3
   3639   3638   3641   3643     1  180.0000771  0.0000000  2
   3640   3638   3641   3642     1  0.0000000  3.3472000  1
   3640   3638   3641   3642     1  0.0000000  0.0000000  2
   3640   3638   3641   3642     1  180.0000771  0.3347200  3
   3640   3638   3641   3643     1  180.0000771  0.0000000  2
   3642   3641   3643   3644     1  0.0000000  7.9496000  1
   3642   3641   3643   3644     1  180.0000771  9.6232000  2
   3646   3645   3648   3651     1  0.0000000  0.6508444  3
   3646   3645   3648   3649     1  0.0000000  0.6508444  3
   3646   3645   3648   3650     1  0.0000000  0.6508444  3
   3647   3645   3648   3651     1  0.0000000  0.6508444  3
   3647   3645   3648   3649     1  0.0000000  0.6508444  3
   3647   3645   3648   3650     1  0.0000000  0.6508444  3
   3648   3651   3653   3654     1  180.0000771  9.6232000  2
   3649   3648   3651   3652     1  0.0000000  3.3472000  1
   3649   3648   3651   3652     1  0.0000000  0.0000000  2
   3649   3648   3651   3652     1  180.0000771  0.3347200  3
   3649   3648   3651   3653     1  180.0000771  0.0000000  2
   3650   3648   3651   3652     1  0.0000000  3.3472000  1
   3650   3648   3651   3652     1  0.0000000  0.0000000  2
   3650   3648   3651   3652     1  180.0000771  0.3347200  3
   3650   3648   3651   3653     1  180.0000771  0.0000000  2
   3652   3651   3653   3654     1  0.0000000  7.9496000  1
   3652   3651   3653   3654     1  180.0000771  9.6232000  2
   3656   3659   3662   3663     1  0.0000000  0.6508444  3
   3656   3659   3662   3664     1  0.0000000  0.6508444  3
   3657   3656   3659   3662     1  0.0000000  0.6508444  3
   3657   3656   3659   3660     1  0.0000000  0.6508444  3
   3657   3656   3659   3661     1  0.0000000  0.6508444  3
   3658   3656   3659   3662     1  0.0000000  0.6508444  3
   3658   3656   3659   3660     1  0.0000000  0.6508444  3
   3658   3656   3659   3661     1  0.0000000  0.6508444  3
   3660   3659   3656   3686     1  0.0000000  1.0460000  1
   3660   3659   3656   3686     1  0.0000000  0.0000000  3
   3660   3659   3662   3665     1  0.0000000  0.6508444  3
   3660   3659   3662   3663     1  0.0000000  0.6508444  3
   3660   3659   3662   3664     1  0.0000000  0.6508444  3
   3661   3659   3656   3686     1  0.0000000  1.0460000  1
   3661   3659   3656   3686     1  0.0000000  0.0000000  3
   3661   3659   3662   3665     1  0.0000000  0.6508444  3
   3661   3659   3662   3663     1  0.0000000  0.6508444  3
   3661   3659   3662   3664     1  0.0000000  0.6508444  3
   3662   3665   3666   3667     1  0.0000000  1.2552000  3
   3662   3665   3666   3668     1  0.0000000  1.2552000  3
   3662   3665   3676   3677     1  0.0000000  1.2552000  3
   3662   3665   3676   3678     1  0.0000000  1.2552000  3
   3663   3662   3665   3666     1  0.0000000  1.2552000  3
   3663   3662   3665   3676     1  0.0000000  1.2552000  3
   3664   3662   3665   3666     1  0.0000000  1.2552000  3
   3664   3662   3665   3676     1  0.0000000  1.2552000  3
   3665   3666   3669   3670     1  0.0000000  0.6508444  3
   3665   3666   3669   3671     1  0.0000000  0.6508444  3
   3665   3676   3679   3680     1  0.0000000  0.6508444  3
   3665   3676   3679   3681     1  0.0000000  0.6508444  3
   3666   3665   3676   3677     1  0.0000000  1.2552000  3
   3666   3665   3676   3678     1  0.0000000  1.2552000  3
   3667   3666   3665   3676     1  0.0000000  1.2552000  3
   3667   3666   3669   3672     1  0.0000000  0.6508444  3
   3667   3666   3669   3670     1  0.0000000  0.6508444  3
   3667   3666   3669   3671     1  0.0000000  0.6508444  3
   3668   3666   3665   3676     1  0.0000000  1.2552000  3
   3668   3666   3669   3672     1  0.0000000  0.6508444  3
   3668   3666   3669   3670     1  0.0000000  0.6508444  3
   3668   3666   3669   3671     1  0.0000000  0.6508444  3
   3669   3672   3674   3675     1  180.0000771  9.6232000  2
   3670   3669   3672   3673     1  0.0000000  3.3472000  1
   3670   3669   3672   3673     1  0.0000000  0.0000000  2
   3670   3669   3672   3673     1  180.0000771  0.3347200  3
   3670   3669   3672   3674     1  180.0000771  0.0000000  2
   3671   3669   3672   3673     1  0.0000000  3.3472000  1
   3671   3669   3672   3673     1  0.0000000  0.0000000  2
   3671   3669   3672   3673     1  180.0000771  0.3347200  3
   3671   3669   3672   3674     1  180.0000771  0.0000000  2
   3673   3672   3674   3675     1  0.0000000  7.9496000  1
   3673   3672   3674   3675     1  180.0000771  9.6232000  2
   3677   3676   3679   3682     1  0.0000000  0.6508444  3
   3677   3676   3679   3680     1  0.0000000  0.6508444  3
   3677   3676   3679   3681     1  0.0000000  0.6508444  3
   3678   3676   3679   3682     1  0.0000000  0.6508444  3
   3678   3676   3679   3680     1  0.0000000  0.6508444  3
   3678   3676   3679   3681     1  0.0000000  0.6508444  3
   3679   3682   3684   3685     1  180.0000771  9.6232000  2
   3680   3679   3682   3683     1  0.0000000  3.3472000  1
   3680   3679   3682   3683     1  0.0000000  0.0000000  2
   3680   3679   3682   3683     1  180.0000771  0.3347200  3
   3680   3679   3682   3684     1  180.0000771  0.0000000  2
   3681   3679   3682   3683     1  0.0000000  3.3472000  1
   3681   3679   3682   3683     1  0.0000000  0.0000000  2
   3681   3679   3682   3683     1  180.0000771  0.3347200  3
   3681   3679   3682   3684     1  180.0000771  0.0000000  2
   3683   3682   3684   3685     1  0.0000000  7.9496000  1
   3683   3682   3684   3685     1  180.0000771  9.6232000  2
   3687   3690   3693   3694     1  0.0000000  0.6508444  3
   3687   3690   3693   3695     1  0.0000000  0.6508444  3
   3688   3687   3690   3693     1  0.0000000  0.6508444  3
   3688   3687   3690   3691     1  0.0000000  0.6508444  3
   3688   3687   3690   3692     1  0.0000000  0.6508444  3
   3689   3687   3690   3693     1  0.0000000  0.6508444  3
   3689   3687   3690   3691     1  0.0000000  0.6508444  3
   3689   3687   3690   3692     1  0.0000000  0.6508444  3
   3691   3690   3693   3696     1  0.0000000  0.6508444  3
   3691   3690   3693   3694     1  0.0000000  0.6508444  3
   3691   3690   3693   3695     1  0.0000000  0.6508444  3
   3691   3690   3687   3717     1  0.0000000  1.0460000  1
   3691   3690   3687   3717     1  0.0000000  0.0000000  3
   3692   3690   3693   3696     1  0.0000000  0.6508444  3
   3692   3690   3693   3694     1  0.0000000  0.6508444  3
   3692   3690   3693   3695     1  0.0000000  0.6508444  3
   3692   3690   3687   3717     1  0.0000000  1.0460000  1
   3692   3690   3687   3717     1  0.0000000  0.0000000  3
   3693   3696   3697   3698     1  0.0000000  1.2552000  3
   3693   3696   3697   3699     1  0.0000000  1.2552000  3
   3693   3696   3707   3708     1  0.0000000  1.2552000  3
   3693   3696   3707   3709     1  0.0000000  1.2552000  3
   3694   3693   3696   3697     1  0.0000000  1.2552000  3
   3694   3693   3696   3707     1  0.0000000  1.2552000  3
   3695   3693   3696   3697     1  0.0000000  1.2552000  3
   3695   3693   3696   3707     1  0.0000000  1.2552000  3
   3696   3697   3700   3701     1  0.0000000  0.6508444  3
   3696   3697   3700   3702     1  0.0000000  0.6508444  3
   3696   3707   3710   3711     1  0.0000000  0.6508444  3
   3696   3707   3710   3712     1  0.0000000  0.6508444  3
   3697   3696   3707   3708     1  0.0000000  1.2552000  3
   3697   3696   3707   3709     1  0.0000000  1.2552000  3
   3698   3697   3700   3703     1  0.0000000  0.6508444  3
   3698   3697   3700   3701     1  0.0000000  0.6508444  3
   3698   3697   3700   3702     1  0.0000000  0.6508444  3
   3698   3697   3696   3707     1  0.0000000  1.2552000  3
   3699   3697   3700   3703     1  0.0000000  0.6508444  3
   3699   3697   3700   3701     1  0.0000000  0.6508444  3
   3699   3697   3700   3702     1  0.0000000  0.6508444  3
   3699   3697   3696   3707     1  0.0000000  1.2552000  3
   3700   3703   3705   3706     1  180.0000771  9.6232000  2
   3701   3700   3703   3704     1  0.0000000  3.3472000  1
   3701   3700   3703   3704     1  0.0000000  0.0000000  2
   3701   3700   3703   3704     1  180.0000771  0.3347200  3
   3701   3700   3703   3705     1  180.0000771  0.0000000  2
   3702   3700   3703   3704     1  0.0000000  3.3472000  1
   3702   3700   3703   3704     1  0.0000000  0.0000000  2
   3702   3700   3703   3704     1  180.0000771  0.3347200  3
   3702   3700   3703   3705     1  180.0000771  0.0000000  2
   3704   3703   3705   3706     1  0.0000000  7.9496000  1
   3704   3703   3705   3706     1  180.0000771  9.6232000  2
   3708   3707   3710   3713     1  0.0000000  0.6508444  3
   3708   3707   3710   3711     1  0.0000000  0.6508444  3
   3708   3707   3710   3712     1  0.0000000  0.6508444  3
   3709   3707   3710   3713     1  0.0000000  0.6508444  3
   3709   3707   3710   3711     1  0.0000000  0.6508444  3
   3709   3707   3710   3712     1  0.0000000  0.6508444  3
   3710   3713   3715   3716     1  180.0000771  9.6232000  2
   3711   3710   3713   3714     1  0.0000000  3.3472000  1
   3711   3710   3713   3714     1  0.0000000  0.0000000  2
   3711   3710   3713   3714     1  180.0000771  0.3347200  3
   3711   3710   3713   3715     1  180.0000771  0.0000000  2
   3712   3710   3713   3714     1  0.0000000  3.3472000  1
   3712   3710   3713   3714     1  0.0000000  0.0000000  2
   3712   3710   3713   3714     1  180.0000771  0.3347200  3
   3712   3710   3713   3715     1  180.0000771  0.0000000  2
   3714   3713   3715   3716     1  0.0000000  7.9496000  1
   3714   3713   3715   3716     1  180.0000771  9.6232000  2
   3718   3721   3724   3725     1  0.0000000  0.6508444  3
   3718   3721   3724   3726     1  0.0000000  0.6508444  3
   3719   3718   3721   3724     1  0.0000000  0.6508444  3
   3719   3718   3721   3722     1  0.0000000  0.6508444  3
   3719   3718   3721   3723     1  0.0000000  0.6508444  3
   3720   3718   3721   3724     1  0.0000000  0.6508444  3
   3720   3718   3721   3722     1  0.0000000  0.6508444  3
   3720   3718   3721   3723     1  0.0000000  0.6508444  3
   3722   3721   3718   3748     1  0.0000000  1.0460000  1
   3722   3721   3718   3748     1  0.0000000  0.0000000  3
   3722   3721   3724   3727     1  0.0000000  0.6508444  3
   3722   3721   3724   3725     1  0.0000000  0.6508444  3
   3722   3721   3724   3726     1  0.0000000  0.6508444  3
   3723   3721   3718   3748     1  0.0000000  1.0460000  1
   3723   3721   3718   3748     1  0.0000000  0.0000000  3
   3723   3721   3724   3727     1  0.0000000  0.6508444  3
   3723   3721   3724   3725     1  0.0000000  0.6508444  3
   3723   3721   3724   3726     1  0.0000000  0.6508444  3
   3724   3727   3728   3729     1  0.0000000  1.2552000  3
   3724   3727   3728   3730     1  0.0000000  1.2552000  3
   3724   3727   3738   3739     1  0.0000000  1.2552000  3
   3724   3727   3738   3740     1  0.0000000  1.2552000  3
   3725   3724   3727   3728     1  0.0000000  1.2552000  3
   3725   3724   3727   3738     1  0.0000000  1.2552000  3
   3726   3724   3727   3728     1  0.0000000  1.2552000  3
   3726   3724   3727   3738     1  0.0000000  1.2552000  3
   3727   3728   3731   3732     1  0.0000000  0.6508444  3
   3727   3728   3731   3733     1  0.0000000  0.6508444  3
   3727   3738   3741   3742     1  0.0000000  0.6508444  3
   3727   3738   3741   3743     1  0.0000000  0.6508444  3
   3728   3727   3738   3739     1  0.0000000  1.2552000  3
   3728   3727   3738   3740     1  0.0000000  1.2552000  3
   3729   3728   3727   3738     1  0.0000000  1.2552000  3
   3729   3728   3731   3734     1  0.0000000  0.6508444  3
   3729   3728   3731   3732     1  0.0000000  0.6508444  3
   3729   3728   3731   3733     1  0.0000000  0.6508444  3
   3730   3728   3727   3738     1  0.0000000  1.2552000  3
   3730   3728   3731   3734     1  0.0000000  0.6508444  3
   3730   3728   3731   3732     1  0.0000000  0.6508444  3
   3730   3728   3731   3733     1  0.0000000  0.6508444  3
   3731   3734   3736   3737     1  180.0000771  9.6232000  2
   3732   3731   3734   3735     1  0.0000000  3.3472000  1
   3732   3731   3734   3735     1  0.0000000  0.0000000  2
   3732   3731   3734   3735     1  180.0000771  0.3347200  3
   3732   3731   3734   3736     1  180.0000771  0.0000000  2
   3733   3731   3734   3735     1  0.0000000  3.3472000  1
   3733   3731   3734   3735     1  0.0000000  0.0000000  2
   3733   3731   3734   3735     1  180.0000771  0.3347200  3
   3733   3731   3734   3736     1  180.0000771  0.0000000  2
   3735   3734   3736   3737     1  0.0000000  7.9496000  1
   3735   3734   3736   3737     1  180.0000771  9.6232000  2
   3739   3738   3741   3744     1  0.0000000  0.6508444  3
   3739   3738   3741   3742     1  0.0000000  0.6508444  3
   3739   3738   3741   3743     1  0.0000000  0.6508444  3
   3740   3738   3741   3744     1  0.0000000  0.6508444  3
   3740   3738   3741   3742     1  0.0000000  0.6508444  3
   3740   3738   3741   3743     1  0.0000000  0.6508444  3
   3741   3744   3746   3747     1  180.0000771  9.6232000  2
   3742   3741   3744   3745     1  0.0000000  3.3472000  1
   3742   3741   3744   3745     1  0.0000000  0.0000000  2
   3742   3741   3744   3745     1  180.0000771  0.3347200  3
   3742   3741   3744   3746     1  180.0000771  0.0000000  2
   3743   3741   3744   3745     1  0.0000000  3.3472000  1
   3743   3741   3744   3745     1  0.0000000  0.0000000  2
   3743   3741   3744   3745     1  180.0000771  0.3347200  3
   3743   3741   3744   3746     1  180.0000771  0.0000000  2
   3745   3744   3746   3747     1  0.0000000  7.9496000  1
   3745   3744   3746   3747     1  180.0000771  9.6232000  2
   3749   3752   3755   3756     1  0.0000000  0.6508444  3
   3749   3752   3755   3757     1  0.0000000  0.6508444  3
   3750   3749   3752   3755     1  0.0000000  0.6508444  3
   3750   3749   3752   3753     1  0.0000000  0.6508444  3
   3750   3749   3752   3754     1  0.0000000  0.6508444  3
   3751   3749   3752   3755     1  0.0000000  0.6508444  3
   3751   3749   3752   3753     1  0.0000000  0.6508444  3
   3751   3749   3752   3754     1  0.0000000  0.6508444  3
   3753   3752   3755   3758     1  0.0000000  0.6508444  3
   3753   3752   3755   3756     1  0.0000000  0.6508444  3
   3753   3752   3755   3757     1  0.0000000  0.6508444  3
   3753   3752   3749   3779     1  0.0000000  1.0460000  1
   3753   3752   3749   3779     1  0.0000000  0.0000000  3
   3754   3752   3755   3758     1  0.0000000  0.6508444  3
   3754   3752   3755   3756     1  0.0000000  0.6508444  3
   3754   3752   3755   3757     1  0.0000000  0.6508444  3
   3754   3752   3749   3779     1  0.0000000  1.0460000  1
   3754   3752   3749   3779     1  0.0000000  0.0000000  3
   3755   3758   3759   3760     1  0.0000000  1.2552000  3
   3755   3758   3759   3761     1  0.0000000  1.2552000  3
   3755   3758   3769   3770     1  0.0000000  1.2552000  3
   3755   3758   3769   3771     1  0.0000000  1.2552000  3
   3756   3755   3758   3759     1  0.0000000  1.2552000  3
   3756   3755   3758   3769     1  0.0000000  1.2552000  3
   3757   3755   3758   3759     1  0.0000000  1.2552000  3
   3757   3755   3758   3769     1  0.0000000  1.2552000  3
   3758   3759   3762   3763     1  0.0000000  0.6508444  3
   3758   3759   3762   3764     1  0.0000000  0.6508444  3
   3758   3769   3772   3773     1  0.0000000  0.6508444  3
   3758   3769   3772   3774     1  0.0000000  0.6508444  3
   3759   3758   3769   3770     1  0.0000000  1.2552000  3
   3759   3758   3769   3771     1  0.0000000  1.2552000  3
   3760   3759   3762   3765     1  0.0000000  0.6508444  3
   3760   3759   3762   3763     1  0.0000000  0.6508444  3
   3760   3759   3762   3764     1  0.0000000  0.6508444  3
   3760   3759   3758   3769     1  0.0000000  1.2552000  3
   3761   3759   3762   3765     1  0.0000000  0.6508444  3
   3761   3759   3762   3763     1  0.0000000  0.6508444  3
   3761   3759   3762   3764     1  0.0000000  0.6508444  3
   3761   3759   3758   3769     1  0.0000000  1.2552000  3
   3762   3765   3767   3768     1  180.0000771  9.6232000  2
   3763   3762   3765   3766     1  0.0000000  3.3472000  1
   3763   3762   3765   3766     1  0.0000000  0.0000000  2
   3763   3762   3765   3766     1  180.0000771  0.3347200  3
   3763   3762   3765   3767     1  180.0000771  0.0000000  2
   3764   3762   3765   3766     1  0.0000000  3.3472000  1
   3764   3762   3765   3766     1  0.0000000  0.0000000  2
   3764   3762   3765   3766     1  180.0000771  0.3347200  3
   3764   3762   3765   3767     1  180.0000771  0.0000000  2
   3766   3765   3767   3768     1  0.0000000  7.9496000  1
   3766   3765   3767   3768     1  180.0000771  9.6232000  2
   3770   3769   3772   3775     1  0.0000000  0.6508444  3
   3770   3769   3772   3773     1  0.0000000  0.6508444  3
   3770   3769   3772   3774     1  0.0000000  0.6508444  3
   3771   3769   3772   3775     1  0.0000000  0.6508444  3
   3771   3769   3772   3773     1  0.0000000  0.6508444  3
   3771   3769   3772   3774     1  0.0000000  0.6508444  3
   3772   3775   3777   3778     1  180.0000771  9.6232000  2
   3773   3772   3775   3776     1  0.0000000  3.3472000  1
   3773   3772   3775   3776     1  0.0000000  0.0000000  2
   3773   3772   3775   3776     1  180.0000771  0.3347200  3
   3773   3772   3775   3777     1  180.0000771  0.0000000  2
   3774   3772   3775   3776     1  0.0000000  3.3472000  1
   3774   3772   3775   3776     1  0.0000000  0.0000000  2
   3774   3772   3775   3776     1  180.0000771  0.3347200  3
   3774   3772   3775   3777     1  180.0000771  0.0000000  2
   3776   3775   3777   3778     1  0.0000000  7.9496000  1
   3776   3775   3777   3778     1  180.0000771  9.6232000  2
   3780   3783   3786   3787     1  0.0000000  0.6508444  3
   3780   3783   3786   3788     1  0.0000000  0.6508444  3
   3781   3780   3783   3786     1  0.0000000  0.6508444  3
   3781   3780   3783   3784     1  0.0000000  0.6508444  3
   3781   3780   3783   3785     1  0.0000000  0.6508444  3
   3782   3780   3783   3786     1  0.0000000  0.6508444  3
   3782   3780   3783   3784     1  0.0000000  0.6508444  3
   3782   3780   3783   3785     1  0.0000000  0.6508444  3
   3784   3783   3780   3810     1  0.0000000  1.0460000  1
   3784   3783   3780   3810     1  0.0000000  0.0000000  3
   3784   3783   3786   3789     1  0.0000000  0.6508444  3
   3784   3783   3786   3787     1  0.0000000  0.6508444  3
   3784   3783   3786   3788     1  0.0000000  0.6508444  3
   3785   3783   3780   3810     1  0.0000000  1.0460000  1
   3785   3783   3780   3810     1  0.0000000  0.0000000  3
   3785   3783   3786   3789     1  0.0000000  0.6508444  3
   3785   3783   3786   3787     1  0.0000000  0.6508444  3
   3785   3783   3786   3788     1  0.0000000  0.6508444  3
   3786   3789   3790   3791     1  0.0000000  1.2552000  3
   3786   3789   3790   3792     1  0.0000000  1.2552000  3
   3786   3789   3800   3801     1  0.0000000  1.2552000  3
   3786   3789   3800   3802     1  0.0000000  1.2552000  3
   3787   3786   3789   3790     1  0.0000000  1.2552000  3
   3787   3786   3789   3800     1  0.0000000  1.2552000  3
   3788   3786   3789   3790     1  0.0000000  1.2552000  3
   3788   3786   3789   3800     1  0.0000000  1.2552000  3
   3789   3790   3793   3794     1  0.0000000  0.6508444  3
   3789   3790   3793   3795     1  0.0000000  0.6508444  3
   3789   3800   3803   3804     1  0.0000000  0.6508444  3
   3789   3800   3803   3805     1  0.0000000  0.6508444  3
   3790   3789   3800   3801     1  0.0000000  1.2552000  3
   3790   3789   3800   3802     1  0.0000000  1.2552000  3
   3791   3790   3789   3800     1  0.0000000  1.2552000  3
   3791   3790   3793   3796     1  0.0000000  0.6508444  3
   3791   3790   3793   3794     1  0.0000000  0.6508444  3
   3791   3790   3793   3795     1  0.0000000  0.6508444  3
   3792   3790   3789   3800     1  0.0000000  1.2552000  3
   3792   3790   3793   3796     1  0.0000000  0.6508444  3
   3792   3790   3793   3794     1  0.0000000  0.6508444  3
   3792   3790   3793   3795     1  0.0000000  0.6508444  3
   3793   3796   3798   3799     1  180.0000771  9.6232000  2
   3794   3793   3796   3797     1  0.0000000  3.3472000  1
   3794   3793   3796   3797     1  0.0000000  0.0000000  2
   3794   3793   3796   3797     1  180.0000771  0.3347200  3
   3794   3793   3796   3798     1  180.0000771  0.0000000  2
   3795   3793   3796   3797     1  0.0000000  3.3472000  1
   3795   3793   3796   3797     1  0.0000000  0.0000000  2
   3795   3793   3796   3797     1  180.0000771  0.3347200  3
   3795   3793   3796   3798     1  180.0000771  0.0000000  2
   3797   3796   3798   3799     1  0.0000000  7.9496000  1
   3797   3796   3798   3799     1  180.0000771  9.6232000  2
   3801   3800   3803   3806     1  0.0000000  0.6508444  3
   3801   3800   3803   3804     1  0.0000000  0.6508444  3
   3801   3800   3803   3805     1  0.0000000  0.6508444  3
   3802   3800   3803   3806     1  0.0000000  0.6508444  3
   3802   3800   3803   3804     1  0.0000000  0.6508444  3
   3802   3800   3803   3805     1  0.0000000  0.6508444  3
   3803   3806   3808   3809     1  180.0000771  9.6232000  2
   3804   3803   3806   3807     1  0.0000000  3.3472000  1
   3804   3803   3806   3807     1  0.0000000  0.0000000  2
   3804   3803   3806   3807     1  180.0000771  0.3347200  3
   3804   3803   3806   3808     1  180.0000771  0.0000000  2
   3805   3803   3806   3807     1  0.0000000  3.3472000  1
   3805   3803   3806   3807     1  0.0000000  0.0000000  2
   3805   3803   3806   3807     1  180.0000771  0.3347200  3
   3805   3803   3806   3808     1  180.0000771  0.0000000  2
   3807   3806   3808   3809     1  0.0000000  7.9496000  1
   3807   3806   3808   3809     1  180.0000771  9.6232000  2
   3811   3814   3817   3818     1  0.0000000  0.6508444  3
   3811   3814   3817   3819     1  0.0000000  0.6508444  3
   3812   3811   3814   3817     1  0.0000000  0.6508444  3
   3812   3811   3814   3815     1  0.0000000  0.6508444  3
   3812   3811   3814   3816     1  0.0000000  0.6508444  3
   3813   3811   3814   3817     1  0.0000000  0.6508444  3
   3813   3811   3814   3815     1  0.0000000  0.6508444  3
   3813   3811   3814   3816     1  0.0000000  0.6508444  3
   3815   3814   3817   3820     1  0.0000000  0.6508444  3
   3815   3814   3817   3818     1  0.0000000  0.6508444  3
   3815   3814   3817   3819     1  0.0000000  0.6508444  3
   3815   3814   3811   3841     1  0.0000000  1.0460000  1
   3815   3814   3811   3841     1  0.0000000  0.0000000  3
   3816   3814   3817   3820     1  0.0000000  0.6508444  3
   3816   3814   3817   3818     1  0.0000000  0.6508444  3
   3816   3814   3817   3819     1  0.0000000  0.6508444  3
   3816   3814   3811   3841     1  0.0000000  1.0460000  1
   3816   3814   3811   3841     1  0.0000000  0.0000000  3
   3817   3820   3821   3822     1  0.0000000  1.2552000  3
   3817   3820   3821   3823     1  0.0000000  1.2552000  3
   3817   3820   3831   3832     1  0.0000000  1.2552000  3
   3817   3820   3831   3833     1  0.0000000  1.2552000  3
   3818   3817   3820   3821     1  0.0000000  1.2552000  3
   3818   3817   3820   3831     1  0.0000000  1.2552000  3
   3819   3817   3820   3821     1  0.0000000  1.2552000  3
   3819   3817   3820   3831     1  0.0000000  1.2552000  3
   3820   3821   3824   3825     1  0.0000000  0.6508444  3
   3820   3821   3824   3826     1  0.0000000  0.6508444  3
   3820   3831   3834   3835     1  0.0000000  0.6508444  3
   3820   3831   3834   3836     1  0.0000000  0.6508444  3
   3821   3820   3831   3832     1  0.0000000  1.2552000  3
   3821   3820   3831   3833     1  0.0000000  1.2552000  3
   3822   3821   3824   3827     1  0.0000000  0.6508444  3
   3822   3821   3824   3825     1  0.0000000  0.6508444  3
   3822   3821   3824   3826     1  0.0000000  0.6508444  3
   3822   3821   3820   3831     1  0.0000000  1.2552000  3
   3823   3821   3824   3827     1  0.0000000  0.6508444  3
   3823   3821   3824   3825     1  0.0000000  0.6508444  3
   3823   3821   3824   3826     1  0.0000000  0.6508444  3
   3823   3821   3820   3831     1  0.0000000  1.2552000  3
   3824   3827   3829   3830     1  180.0000771  9.6232000  2
   3825   3824   3827   3828     1  0.0000000  3.3472000  1
   3825   3824   3827   3828     1  0.0000000  0.0000000  2
   3825   3824   3827   3828     1  180.0000771  0.3347200  3
   3825   3824   3827   3829     1  180.0000771  0.0000000  2
   3826   3824   3827   3828     1  0.0000000  3.3472000  1
   3826   3824   3827   3828     1  0.0000000  0.0000000  2
   3826   3824   3827   3828     1  180.0000771  0.3347200  3
   3826   3824   3827   3829     1  180.0000771  0.0000000  2
   3828   3827   3829   3830     1  0.0000000  7.9496000  1
   3828   3827   3829   3830     1  180.0000771  9.6232000  2
   3832   3831   3834   3837     1  0.0000000  0.6508444  3
   3832   3831   3834   3835     1  0.0000000  0.6508444  3
   3832   3831   3834   3836     1  0.0000000  0.6508444  3
   3833   3831   3834   3837     1  0.0000000  0.6508444  3
   3833   3831   3834   3835     1  0.0000000  0.6508444  3
   3833   3831   3834   3836     1  0.0000000  0.6508444  3
   3834   3837   3839   3840     1  180.0000771  9.6232000  2
   3835   3834   3837   3838     1  0.0000000  3.3472000  1
   3835   3834   3837   3838     1  0.0000000  0.0000000  2
   3835   3834   3837   3838     1  180.0000771  0.3347200  3
   3835   3834   3837   3839     1  180.0000771  0.0000000  2
   3836   3834   3837   3838     1  0.0000000  3.3472000  1
   3836   3834   3837   3838     1  0.0000000  0.0000000  2
   3836   3834   3837   3838     1  180.0000771  0.3347200  3
   3836   3834   3837   3839     1  180.0000771  0.0000000  2
   3838   3837   3839   3840     1  0.0000000  7.9496000  1
   3838   3837   3839   3840     1  180.0000771  9.6232000  2
   3842   3845   3848   3849     1  0.0000000  0.6508444  3
   3842   3845   3848   3850     1  0.0000000  0.6508444  3
   3843   3842   3845   3848     1  0.0000000  0.6508444  3
   3843   3842   3845   3846     1  0.0000000  0.6508444  3
   3843   3842   3845   3847     1  0.0000000  0.6508444  3
   3844   3842   3845   3848     1  0.0000000  0.6508444  3
   3844   3842   3845   3846     1  0.0000000  0.6508444  3
   3844   3842   3845   3847     1  0.0000000  0.6508444  3
   3846   3845   3842   3872     1  0.0000000  1.0460000  1
   3846   3845   3842   3872     1  0.0000000  0.0000000  3
   3846   3845   3848   3851     1  0.0000000  0.6508444  3
   3846   3845   3848   3849     1  0.0000000  0.6508444  3
   3846   3845   3848   3850     1  0.0000000  0.6508444  3
   3847   3845   3842   3872     1  0.0000000  1.0460000  1
   3847   3845   3842   3872     1  0.0000000  0.0000000  3
   3847   3845   3848   3851     1  0.0000000  0.6508444  3
   3847   3845   3848   3849     1  0.0000000  0.6508444  3
   3847   3845   3848   3850     1  0.0000000  0.6508444  3
   3848   3851   3852   3853     1  0.0000000  1.2552000  3
   3848   3851   3852   3854     1  0.0000000  1.2552000  3
   3848   3851   3862   3863     1  0.0000000  1.2552000  3
   3848   3851   3862   3864     1  0.0000000  1.2552000  3
   3849   3848   3851   3852     1  0.0000000  1.2552000  3
   3849   3848   3851   3862     1  0.0000000  1.2552000  3
   3850   3848   3851   3852     1  0.0000000  1.2552000  3
   3850   3848   3851   3862     1  0.0000000  1.2552000  3
   3851   3852   3855   3856     1  0.0000000  0.6508444  3
   3851   3852   3855   3857     1  0.0000000  0.6508444  3
   3851   3862   3865   3866     1  0.0000000  0.6508444  3
   3851   3862   3865   3867     1  0.0000000  0.6508444  3
   3852   3851   3862   3863     1  0.0000000  1.2552000  3
   3852   3851   3862   3864     1  0.0000000  1.2552000  3
   3853   3852   3851   3862     1  0.0000000  1.2552000  3
   3853   3852   3855   3858     1  0.0000000  0.6508444  3
   3853   3852   3855   3856     1  0.0000000  0.6508444  3
   3853   3852   3855   3857     1  0.0000000  0.6508444  3
   3854   3852   3851   3862     1  0.0000000  1.2552000  3
   3854   3852   3855   3858     1  0.0000000  0.6508444  3
   3854   3852   3855   3856     1  0.0000000  0.6508444  3
   3854   3852   3855   3857     1  0.0000000  0.6508444  3
   3855   3858   3860   3861     1  180.0000771  9.6232000  2
   3856   3855   3858   3859     1  0.0000000  3.3472000  1
   3856   3855   3858   3859     1  0.0000000  0.0000000  2
   3856   3855   3858   3859     1  180.0000771  0.3347200  3
   3856   3855   3858   3860     1  180.0000771  0.0000000  2
   3857   3855   3858   3859     1  0.0000000  3.3472000  1
   3857   3855   3858   3859     1  0.0000000  0.0000000  2
   3857   3855   3858   3859     1  180.0000771  0.3347200  3
   3857   3855   3858   3860     1  180.0000771  0.0000000  2
   3859   3858   3860   3861     1  0.0000000  7.9496000  1
   3859   3858   3860   3861     1  180.0000771  9.6232000  2
   3863   3862   3865   3868     1  0.0000000  0.6508444  3
   3863   3862   3865   3866     1  0.0000000  0.6508444  3
   3863   3862   3865   3867     1  0.0000000  0.6508444  3
   3864   3862   3865   3868     1  0.0000000  0.6508444  3
   3864   3862   3865   3866     1  0.0000000  0.6508444  3
   3864   3862   3865   3867     1  0.0000000  0.6508444  3
   3865   3868   3870   3871     1  180.0000771  9.6232000  2
   3866   3865   3868   3869     1  0.0000000  3.3472000  1
   3866   3865   3868   3869     1  0.0000000  0.0000000  2
   3866   3865   3868   3869     1  180.0000771  0.3347200  3
   3866   3865   3868   3870     1  180.0000771  0.0000000  2
   3867   3865   3868   3869     1  0.0000000  3.3472000  1
   3867   3865   3868   3869     1  0.0000000  0.0000000  2
   3867   3865   3868   3869     1  180.0000771  0.3347200  3
   3867   3865   3868   3870     1  180.0000771  0.0000000  2
   3869   3868   3870   3871     1  0.0000000  7.9496000  1
   3869   3868   3870   3871     1  180.0000771  9.6232000  2
   3873   3876   3879   3880     1  0.0000000  0.6508444  3
   3873   3876   3879   3881     1  0.0000000  0.6508444  3
   3874   3873   3876   3879     1  0.0000000  0.6508444  3
   3874   3873   3876   3877     1  0.0000000  0.6508444  3
   3874   3873   3876   3878     1  0.0000000  0.6508444  3
   3875   3873   3876   3879     1  0.0000000  0.6508444  3
   3875   3873   3876   3877     1  0.0000000  0.6508444  3
   3875   3873   3876   3878     1  0.0000000  0.6508444  3
   3877   3876   3879   3882     1  0.0000000  0.6508444  3
   3877   3876   3879   3880     1  0.0000000  0.6508444  3
   3877   3876   3879   3881     1  0.0000000  0.6508444  3
   3877   3876   3873   3903     1  0.0000000  1.0460000  1
   3877   3876   3873   3903     1  0.0000000  0.0000000  3
   3878   3876   3879   3882     1  0.0000000  0.6508444  3
   3878   3876   3879   3880     1  0.0000000  0.6508444  3
   3878   3876   3879   3881     1  0.0000000  0.6508444  3
   3878   3876   3873   3903     1  0.0000000  1.0460000  1
   3878   3876   3873   3903     1  0.0000000  0.0000000  3
   3879   3882   3883   3884     1  0.0000000  1.2552000  3
   3879   3882   3883   3885     1  0.0000000  1.2552000  3
   3879   3882   3893   3894     1  0.0000000  1.2552000  3
   3879   3882   3893   3895     1  0.0000000  1.2552000  3
   3880   3879   3882   3883     1  0.0000000  1.2552000  3
   3880   3879   3882   3893     1  0.0000000  1.2552000  3
   3881   3879   3882   3883     1  0.0000000  1.2552000  3
   3881   3879   3882   3893     1  0.0000000  1.2552000  3
   3882   3883   3886   3887     1  0.0000000  0.6508444  3
   3882   3883   3886   3888     1  0.0000000  0.6508444  3
   3882   3893   3896   3897     1  0.0000000  0.6508444  3
   3882   3893   3896   3898     1  0.0000000  0.6508444  3
   3883   3882   3893   3894     1  0.0000000  1.2552000  3
   3883   3882   3893   3895     1  0.0000000  1.2552000  3
   3884   3883   3886   3889     1  0.0000000  0.6508444  3
   3884   3883   3886   3887     1  0.0000000  0.6508444  3
   3884   3883   3886   3888     1  0.0000000  0.6508444  3
   3884   3883   3882   3893     1  0.0000000  1.2552000  3
   3885   3883   3886   3889     1  0.0000000  0.6508444  3
   3885   3883   3886   3887     1  0.0000000  0.6508444  3
   3885   3883   3886   3888     1  0.0000000  0.6508444  3
   3885   3883   3882   3893     1  0.0000000  1.2552000  3
   3886   3889   3891   3892     1  180.0000771  9.6232000  2
   3887   3886   3889   3890     1  0.0000000  3.3472000  1
   3887   3886   3889   3890     1  0.0000000  0.0000000  2
   3887   3886   3889   3890     1  180.0000771  0.3347200  3
   3887   3886   3889   3891     1  180.0000771  0.0000000  2
   3888   3886   3889   3890     1  0.0000000  3.3472000  1
   3888   3886   3889   3890     1  0.0000000  0.0000000  2
   3888   3886   3889   3890     1  180.0000771  0.3347200  3
   3888   3886   3889   3891     1  180.0000771  0.0000000  2
   3890   3889   3891   3892     1  0.0000000  7.9496000  1
   3890   3889   3891   3892     1  180.0000771  9.6232000  2
   3894   3893   3896   3899     1  0.0000000  0.6508444  3
   3894   3893   3896   3897     1  0.0000000  0.6508444  3
   3894   3893   3896   3898     1  0.0000000  0.6508444  3
   3895   3893   3896   3899     1  0.0000000  0.6508444  3
   3895   3893   3896   3897     1  0.0000000  0.6508444  3
   3895   3893   3896   3898     1  0.0000000  0.6508444  3
   3896   3899   3901   3902     1  180.0000771  9.6232000  2
   3897   3896   3899   3900     1  0.0000000  3.3472000  1
   3897   3896   3899   3900     1  0.0000000  0.0000000  2
   3897   3896   3899   3900     1  180.0000771  0.3347200  3
   3897   3896   3899   3901     1  180.0000771  0.0000000  2
   3898   3896   3899   3900     1  0.0000000  3.3472000  1
   3898   3896   3899   3900     1  0.0000000  0.0000000  2
   3898   3896   3899   3900     1  180.0000771  0.3347200  3
   3898   3896   3899   3901     1  180.0000771  0.0000000  2
   3900   3899   3901   3902     1  0.0000000  7.9496000  1
   3900   3899   3901   3902     1  180.0000771  9.6232000  2
   3904   3907   3910   3911     1  0.0000000  0.6508444  3
   3904   3907   3910   3912     1  0.0000000  0.6508444  3
   3905   3904   3907   3910     1  0.0000000  0.6508444  3
   3905   3904   3907   3908     1  0.0000000  0.6508444  3
   3905   3904   3907   3909     1  0.0000000  0.6508444  3
   3906   3904   3907   3910     1  0.0000000  0.6508444  3
   3906   3904   3907   3908     1  0.0000000  0.6508444  3
   3906   3904   3907   3909     1  0.0000000  0.6508444  3
   3908   3907   3904   3934     1  0.0000000  1.0460000  1
   3908   3907   3904   3934     1  0.0000000  0.0000000  3
   3908   3907   3910   3913     1  0.0000000  0.6508444  3
   3908   3907   3910   3911     1  0.0000000  0.6508444  3
   3908   3907   3910   3912     1  0.0000000  0.6508444  3
   3909   3907   3904   3934     1  0.0000000  1.0460000  1
   3909   3907   3904   3934     1  0.0000000  0.0000000  3
   3909   3907   3910   3913     1  0.0000000  0.6508444  3
   3909   3907   3910   3911     1  0.0000000  0.6508444  3
   3909   3907   3910   3912     1  0.0000000  0.6508444  3
   3910   3913   3914   3915     1  0.0000000  1.2552000  3
   3910   3913   3914   3916     1  0.0000000  1.2552000  3
   3910   3913   3924   3925     1  0.0000000  1.2552000  3
   3910   3913   3924   3926     1  0.0000000  1.2552000  3
   3911   3910   3913   3914     1  0.0000000  1.2552000  3
   3911   3910   3913   3924     1  0.0000000  1.2552000  3
   3912   3910   3913   3914     1  0.0000000  1.2552000  3
   3912   3910   3913   3924     1  0.0000000  1.2552000  3
   3913   3914   3917   3918     1  0.0000000  0.6508444  3
   3913   3914   3917   3919     1  0.0000000  0.6508444  3
   3913   3924   3927   3928     1  0.0000000  0.6508444  3
   3913   3924   3927   3929     1  0.0000000  0.6508444  3
   3914   3913   3924   3925     1  0.0000000  1.2552000  3
   3914   3913   3924   3926     1  0.0000000  1.2552000  3
   3915   3914   3913   3924     1  0.0000000  1.2552000  3
   3915   3914   3917   3920     1  0.0000000  0.6508444  3
   3915   3914   3917   3918     1  0.0000000  0.6508444  3
   3915   3914   3917   3919     1  0.0000000  0.6508444  3
   3916   3914   3913   3924     1  0.0000000  1.2552000  3
   3916   3914   3917   3920     1  0.0000000  0.6508444  3
   3916   3914   3917   3918     1  0.0000000  0.6508444  3
   3916   3914   3917   3919     1  0.0000000  0.6508444  3
   3917   3920   3922   3923     1  180.0000771  9.6232000  2
   3918   3917   3920   3921     1  0.0000000  3.3472000  1
   3918   3917   3920   3921     1  0.0000000  0.0000000  2
   3918   3917   3920   3921     1  180.0000771  0.3347200  3
   3918   3917   3920   3922     1  180.0000771  0.0000000  2
   3919   3917   3920   3921     1  0.0000000  3.3472000  1
   3919   3917   3920   3921     1  0.0000000  0.0000000  2
   3919   3917   3920   3921     1  180.0000771  0.3347200  3
   3919   3917   3920   3922     1  180.0000771  0.0000000  2
   3921   3920   3922   3923     1  0.0000000  7.9496000  1
   3921   3920   3922   3923     1  180.0000771  9.6232000  2
   3925   3924   3927   3930     1  0.0000000  0.6508444  3
   3925   3924   3927   3928     1  0.0000000  0.6508444  3
   3925   3924   3927   3929     1  0.0000000  0.6508444  3
   3926   3924   3927   3930     1  0.0000000  0.6508444  3
   3926   3924   3927   3928     1  0.0000000  0.6508444  3
   3926   3924   3927   3929     1  0.0000000  0.6508444  3
   3927   3930   3932   3933     1  180.0000771  9.6232000  2
   3928   3927   3930   3931     1  0.0000000  3.3472000  1
   3928   3927   3930   3931     1  0.0000000  0.0000000  2
   3928   3927   3930   3931     1  180.0000771  0.3347200  3
   3928   3927   3930   3932     1  180.0000771  0.0000000  2
   3929   3927   3930   3931     1  0.0000000  3.3472000  1
   3929   3927   3930   3931     1  0.0000000  0.0000000  2
   3929   3927   3930   3931     1  180.0000771  0.3347200  3
   3929   3927   3930   3932     1  180.0000771  0.0000000  2
   3931   3930   3932   3933     1  0.0000000  7.9496000  1
   3931   3930   3932   3933     1  180.0000771  9.6232000  2
   3935   3938   3941   3942     1  0.0000000  0.6508444  3
   3935   3938   3941   3943     1  0.0000000  0.6508444  3
   3936   3935   3938   3941     1  0.0000000  0.6508444  3
   3936   3935   3938   3939     1  0.0000000  0.6508444  3
   3936   3935   3938   3940     1  0.0000000  0.6508444  3
   3937   3935   3938   3941     1  0.0000000  0.6508444  3
   3937   3935   3938   3939     1  0.0000000  0.6508444  3
   3937   3935   3938   3940     1  0.0000000  0.6508444  3
   3939   3938   3941   3944     1  0.0000000  0.6508444  3
   3939   3938   3941   3942     1  0.0000000  0.6508444  3
   3939   3938   3941   3943     1  0.0000000  0.6508444  3
   3939   3938   3935   3965     1  0.0000000  1.0460000  1
   3939   3938   3935   3965     1  0.0000000  0.0000000  3
   3940   3938   3941   3944     1  0.0000000  0.6508444  3
   3940   3938   3941   3942     1  0.0000000  0.6508444  3
   3940   3938   3941   3943     1  0.0000000  0.6508444  3
   3940   3938   3935   3965     1  0.0000000  1.0460000  1
   3940   3938   3935   3965     1  0.0000000  0.0000000  3
   3941   3944   3945   3946     1  0.0000000  1.2552000  3
   3941   3944   3945   3947     1  0.0000000  1.2552000  3
   3941   3944   3955   3956     1  0.0000000  1.2552000  3
   3941   3944   3955   3957     1  0.0000000  1.2552000  3
   3942   3941   3944   3945     1  0.0000000  1.2552000  3
   3942   3941   3944   3955     1  0.0000000  1.2552000  3
   3943   3941   3944   3945     1  0.0000000  1.2552000  3
   3943   3941   3944   3955     1  0.0000000  1.2552000  3
   3944   3945   3948   3949     1  0.0000000  0.6508444  3
   3944   3945   3948   3950     1  0.0000000  0.6508444  3
   3944   3955   3958   3959     1  0.0000000  0.6508444  3
   3944   3955   3958   3960     1  0.0000000  0.6508444  3
   3945   3944   3955   3956     1  0.0000000  1.2552000  3
   3945   3944   3955   3957     1  0.0000000  1.2552000  3
   3946   3945   3948   3951     1  0.0000000  0.6508444  3
   3946   3945   3948   3949     1  0.0000000  0.6508444  3
   3946   3945   3948   3950     1  0.0000000  0.6508444  3
   3946   3945   3944   3955     1  0.0000000  1.2552000  3
   3947   3945   3948   3951     1  0.0000000  0.6508444  3
   3947   3945   3948   3949     1  0.0000000  0.6508444  3
   3947   3945   3948   3950     1  0.0000000  0.6508444  3
   3947   3945   3944   3955     1  0.0000000  1.2552000  3
   3948   3951   3953   3954     1  180.0000771  9.6232000  2
   3949   3948   3951   3952     1  0.0000000  3.3472000  1
   3949   3948   3951   3952     1  0.0000000  0.0000000  2
   3949   3948   3951   3952     1  180.0000771  0.3347200  3
   3949   3948   3951   3953     1  180.0000771  0.0000000  2
   3950   3948   3951   3952     1  0.0000000  3.3472000  1
   3950   3948   3951   3952     1  0.0000000  0.0000000  2
   3950   3948   3951   3952     1  180.0000771  0.3347200  3
   3950   3948   3951   3953     1  180.0000771  0.0000000  2
   3952   3951   3953   3954     1  0.0000000  7.9496000  1
   3952   3951   3953   3954     1  180.0000771  9.6232000  2
   3956   3955   3958   3961     1  0.0000000  0.6508444  3
   3956   3955   3958   3959     1  0.0000000  0.6508444  3
   3956   3955   3958   3960     1  0.0000000  0.6508444  3
   3957   3955   3958   3961     1  0.0000000  0.6508444  3
   3957   3955   3958   3959     1  0.0000000  0.6508444  3
   3957   3955   3958   3960     1  0.0000000  0.6508444  3
   3958   3961   3963   3964     1  180.0000771  9.6232000  2
   3959   3958   3961   3962     1  0.0000000  3.3472000  1
   3959   3958   3961   3962     1  0.0000000  0.0000000  2
   3959   3958   3961   3962     1  180.0000771  0.3347200  3
   3959   3958   3961   3963     1  180.0000771  0.0000000  2
   3960   3958   3961   3962     1  0.0000000  3.3472000  1
   3960   3958   3961   3962     1  0.0000000  0.0000000  2
   3960   3958   3961   3962     1  180.0000771  0.3347200  3
   3960   3958   3961   3963     1  180.0000771  0.0000000  2
   3962   3961   3963   3964     1  0.0000000  7.9496000  1
   3962   3961   3963   3964     1  180.0000771  9.6232000  2
   3966   3969   3972   3973     1  0.0000000  0.6508444  3
   3966   3969   3972   3974     1  0.0000000  0.6508444  3
   3967   3966   3969   3972     1  0.0000000  0.6508444  3
   3967   3966   3969   3970     1  0.0000000  0.6508444  3
   3967   3966   3969   3971     1  0.0000000  0.6508444  3
   3968   3966   3969   3972     1  0.0000000  0.6508444  3
   3968   3966   3969   3970     1  0.0000000  0.6508444  3
   3968   3966   3969   3971     1  0.0000000  0.6508444  3
   3970   3969   3966   3996     1  0.0000000  1.0460000  1
   3970   3969   3966   3996     1  0.0000000  0.0000000  3
   3970   3969   3972   3975     1  0.0000000  0.6508444  3
   3970   3969   3972   3973     1  0.0000000  0.6508444  3
   3970   3969   3972   3974     1  0.0000000  0.6508444  3
   3971   3969   3966   3996     1  0.0000000  1.0460000  1
   3971   3969   3966   3996     1  0.0000000  0.0000000  3
   3971   3969   3972   3975     1  0.0000000  0.6508444  3
   3971   3969   3972   3973     1  0.0000000  0.6508444  3
   3971   3969   3972   3974     1  0.0000000  0.6508444  3
   3972   3975   3976   3977     1  0.0000000  1.2552000  3
   3972   3975   3976   3978     1  0.0000000  1.2552000  3
   3972   3975   3986   3987     1  0.0000000  1.2552000  3
   3972   3975   3986   3988     1  0.0000000  1.2552000  3
   3973   3972   3975   3976     1  0.0000000  1.2552000  3
   3973   3972   3975   3986     1  0.0000000  1.2552000  3
   3974   3972   3975   3976     1  0.0000000  1.2552000  3
   3974   3972   3975   3986     1  0.0000000  1.2552000  3
   3975   3976   3979   3980     1  0.0000000  0.6508444  3
   3975   3976   3979   3981     1  0.0000000  0.6508444  3
   3975   3986   3989   3990     1  0.0000000  0.6508444  3
   3975   3986   3989   3991     1  0.0000000  0.6508444  3
   3976   3975   3986   3987     1  0.0000000  1.2552000  3
   3976   3975   3986   3988     1  0.0000000  1.2552000  3
   3977   3976   3975   3986     1  0.0000000  1.2552000  3
   3977   3976   3979   3982     1  0.0000000  0.6508444  3
   3977   3976   3979   3980     1  0.0000000  0.6508444  3
   3977   3976   3979   3981     1  0.0000000  0.6508444  3
   3978   3976   3975   3986     1  0.0000000  1.2552000  3
   3978   3976   3979   3982     1  0.0000000  0.6508444  3
   3978   3976   3979   3980     1  0.0000000  0.6508444  3
   3978   3976   3979   3981     1  0.0000000  0.6508444  3
   3979   3982   3984   3985     1  180.0000771  9.6232000  2
   3980   3979   3982   3983     1  0.0000000  3.3472000  1
   3980   3979   3982   3983     1  0.0000000  0.0000000  2
   3980   3979   3982   3983     1  180.0000771  0.3347200  3
   3980   3979   3982   3984     1  180.0000771  0.0000000  2
   3981   3979   3982   3983     1  0.0000000  3.3472000  1
   3981   3979   3982   3983     1  0.0000000  0.0000000  2
   3981   3979   3982   3983     1  180.0000771  0.3347200  3
   3981   3979   3982   3984     1  180.0000771  0.0000000  2
   3983   3982   3984   3985     1  0.0000000  7.9496000  1
   3983   3982   3984   3985     1  180.0000771  9.6232000  2
   3987   3986   3989   3992     1  0.0000000  0.6508444  3
   3987   3986   3989   3990     1  0.0000000  0.6508444  3
   3987   3986   3989   3991     1  0.0000000  0.6508444  3
   3988   3986   3989   3992     1  0.0000000  0.6508444  3
   3988   3986   3989   3990     1  0.0000000  0.6508444  3
   3988   3986   3989   3991     1  0.0000000  0.6508444  3
   3989   3992   3994   3995     1  180.0000771  9.6232000  2
   3990   3989   3992   3993     1  0.0000000  3.3472000  1
   3990   3989   3992   3993     1  0.0000000  0.0000000  2
   3990   3989   3992   3993     1  180.0000771  0.3347200  3
   3990   3989   3992   3994     1  180.0000771  0.0000000  2
   3991   3989   3992   3993     1  0.0000000  3.3472000  1
   3991   3989   3992   3993     1  0.0000000  0.0000000  2
   3991   3989   3992   3993     1  180.0000771  0.3347200  3
   3991   3989   3992   3994     1  180.0000771  0.0000000  2
   3993   3992   3994   3995     1  0.0000000  7.9496000  1
   3993   3992   3994   3995     1  180.0000771  9.6232000  2
   3997   4000   4003   4004     1  0.0000000  0.6508444  3
   3997   4000   4003   4005     1  0.0000000  0.6508444  3
   3998   3997   4000   4003     1  0.0000000  0.6508444  3
   3998   3997   4000   4001     1  0.0000000  0.6508444  3
   3998   3997   4000   4002     1  0.0000000  0.6508444  3
   3999   3997   4000   4003     1  0.0000000  0.6508444  3
   3999   3997   4000   4001     1  0.0000000  0.6508444  3
   3999   3997   4000   4002     1  0.0000000  0.6508444  3
   4001   4000   4003   4006     1  0.0000000  0.6508444  3
   4001   4000   4003   4004     1  0.0000000  0.6508444  3
   4001   4000   4003   4005     1  0.0000000  0.6508444  3
   4001   4000   3997   4027     1  0.0000000  1.0460000  1
   4001   4000   3997   4027     1  0.0000000  0.0000000  3
   4002   4000   4003   4006     1  0.0000000  0.6508444  3
   4002   4000   4003   4004     1  0.0000000  0.6508444  3
   4002   4000   4003   4005     1  0.0000000  0.6508444  3
   4002   4000   3997   4027     1  0.0000000  1.0460000  1
   4002   4000   3997   4027     1  0.0000000  0.0000000  3
   4003   4006   4007   4008     1  0.0000000  1.2552000  3
   4003   4006   4007   4009     1  0.0000000  1.2552000  3
   4003   4006   4017   4018     1  0.0000000  1.2552000  3
   4003   4006   4017   4019     1  0.0000000  1.2552000  3
   4004   4003   4006   4007     1  0.0000000  1.2552000  3
   4004   4003   4006   4017     1  0.0000000  1.2552000  3
   4005   4003   4006   4007     1  0.0000000  1.2552000  3
   4005   4003   4006   4017     1  0.0000000  1.2552000  3
   4006   4007   4010   4011     1  0.0000000  0.6508444  3
   4006   4007   4010   4012     1  0.0000000  0.6508444  3
   4006   4017   4020   4021     1  0.0000000  0.6508444  3
   4006   4017   4020   4022     1  0.0000000  0.6508444  3
   4007   4006   4017   4018     1  0.0000000  1.2552000  3
   4007   4006   4017   4019     1  0.0000000  1.2552000  3
   4008   4007   4010   4013     1  0.0000000  0.6508444  3
   4008   4007   4010   4011     1  0.0000000  0.6508444  3
   4008   4007   4010   4012     1  0.0000000  0.6508444  3
   4008   4007   4006   4017     1  0.0000000  1.2552000  3
   4009   4007   4010   4013     1  0.0000000  0.6508444  3
   4009   4007   4010   4011     1  0.0000000  0.6508444  3
   4009   4007   4010   4012     1  0.0000000  0.6508444  3
   4009   4007   4006   4017     1  0.0000000  1.2552000  3
   4010   4013   4015   4016     1  180.0000771  9.6232000  2
   4011   4010   4013   4014     1  0.0000000  3.3472000  1
   4011   4010   4013   4014     1  0.0000000  0.0000000  2
   4011   4010   4013   4014     1  180.0000771  0.3347200  3
   4011   4010   4013   4015     1  180.0000771  0.0000000  2
   4012   4010   4013   4014     1  0.0000000  3.3472000  1
   4012   4010   4013   4014     1  0.0000000  0.0000000  2
   4012   4010   4013   4014     1  180.0000771  0.3347200  3
   4012   4010   4013   4015     1  180.0000771  0.0000000  2
   4014   4013   4015   4016     1  0.0000000  7.9496000  1
   4014   4013   4015   4016     1  180.0000771  9.6232000  2
   4018   4017   4020   4023     1  0.0000000  0.6508444  3
   4018   4017   4020   4021     1  0.0000000  0.6508444  3
   4018   4017   4020   4022     1  0.0000000  0.6508444  3
   4019   4017   4020   4023     1  0.0000000  0.6508444  3
   4019   4017   4020   4021     1  0.0000000  0.6508444  3
   4019   4017   4020   4022     1  0.0000000  0.6508444  3
   4020   4023   4025   4026     1  180.0000771  9.6232000  2
   4021   4020   4023   4024     1  0.0000000  3.3472000  1
   4021   4020   4023   4024     1  0.0000000  0.0000000  2
   4021   4020   4023   4024     1  180.0000771  0.3347200  3
   4021   4020   4023   4025     1  180.0000771  0.0000000  2
   4022   4020   4023   4024     1  0.0000000  3.3472000  1
   4022   4020   4023   4024     1  0.0000000  0.0000000  2
   4022   4020   4023   4024     1  180.0000771  0.3347200  3
   4022   4020   4023   4025     1  180.0000771  0.0000000  2
   4024   4023   4025   4026     1  0.0000000  7.9496000  1
   4024   4023   4025   4026     1  180.0000771  9.6232000  2
   4028   4031   4034   4035     1  0.0000000  0.6508444  3
   4028   4031   4034   4036     1  0.0000000  0.6508444  3
   4029   4028   4031   4034     1  0.0000000  0.6508444  3
   4029   4028   4031   4032     1  0.0000000  0.6508444  3
   4029   4028   4031   4033     1  0.0000000  0.6508444  3
   4030   4028   4031   4034     1  0.0000000  0.6508444  3
   4030   4028   4031   4032     1  0.0000000  0.6508444  3
   4030   4028   4031   4033     1  0.0000000  0.6508444  3
   4032   4031   4028   4058     1  0.0000000  1.0460000  1
   4032   4031   4028   4058     1  0.0000000  0.0000000  3
   4032   4031   4034   4037     1  0.0000000  0.6508444  3
   4032   4031   4034   4035     1  0.0000000  0.6508444  3
   4032   4031   4034   4036     1  0.0000000  0.6508444  3
   4033   4031   4028   4058     1  0.0000000  1.0460000  1
   4033   4031   4028   4058     1  0.0000000  0.0000000  3
   4033   4031   4034   4037     1  0.0000000  0.6508444  3
   4033   4031   4034   4035     1  0.0000000  0.6508444  3
   4033   4031   4034   4036     1  0.0000000  0.6508444  3
   4034   4037   4038   4039     1  0.0000000  1.2552000  3
   4034   4037   4038   4040     1  0.0000000  1.2552000  3
   4034   4037   4048   4049     1  0.0000000  1.2552000  3
   4034   4037   4048   4050     1  0.0000000  1.2552000  3
   4035   4034   4037   4038     1  0.0000000  1.2552000  3
   4035   4034   4037   4048     1  0.0000000  1.2552000  3
   4036   4034   4037   4038     1  0.0000000  1.2552000  3
   4036   4034   4037   4048     1  0.0000000  1.2552000  3
   4037   4038   4041   4042     1  0.0000000  0.6508444  3
   4037   4038   4041   4043     1  0.0000000  0.6508444  3
   4037   4048   4051   4052     1  0.0000000  0.6508444  3
   4037   4048   4051   4053     1  0.0000000  0.6508444  3
   4038   4037   4048   4049     1  0.0000000  1.2552000  3
   4038   4037   4048   4050     1  0.0000000  1.2552000  3
   4039   4038   4037   4048     1  0.0000000  1.2552000  3
   4039   4038   4041   4044     1  0.0000000  0.6508444  3
   4039   4038   4041   4042     1  0.0000000  0.6508444  3
   4039   4038   4041   4043     1  0.0000000  0.6508444  3
   4040   4038   4037   4048     1  0.0000000  1.2552000  3
   4040   4038   4041   4044     1  0.0000000  0.6508444  3
   4040   4038   4041   4042     1  0.0000000  0.6508444  3
   4040   4038   4041   4043     1  0.0000000  0.6508444  3
   4041   4044   4046   4047     1  180.0000771  9.6232000  2
   4042   4041   4044   4045     1  0.0000000  3.3472000  1
   4042   4041   4044   4045     1  0.0000000  0.0000000  2
   4042   4041   4044   4045     1  180.0000771  0.3347200  3
   4042   4041   4044   4046     1  180.0000771  0.0000000  2
   4043   4041   4044   4045     1  0.0000000  3.3472000  1
   4043   4041   4044   4045     1  0.0000000  0.0000000  2
   4043   4041   4044   4045     1  180.0000771  0.3347200  3
   4043   4041   4044   4046     1  180.0000771  0.0000000  2
   4045   4044   4046   4047     1  0.0000000  7.9496000  1
   4045   4044   4046   4047     1  180.0000771  9.6232000  2
   4049   4048   4051   4054     1  0.0000000  0.6508444  3
   4049   4048   4051   4052     1  0.0000000  0.6508444  3
   4049   4048   4051   4053     1  0.0000000  0.6508444  3
   4050   4048   4051   4054     1  0.0000000  0.6508444  3
   4050   4048   4051   4052     1  0.0000000  0.6508444  3
   4050   4048   4051   4053     1  0.0000000  0.6508444  3
   4051   4054   4056   4057     1  180.0000771  9.6232000  2
   4052   4051   4054   4055     1  0.0000000  3.3472000  1
   4052   4051   4054   4055     1  0.0000000  0.0000000  2
   4052   4051   4054   4055     1  180.0000771  0.3347200  3
   4052   4051   4054   4056     1  180.0000771  0.0000000  2
   4053   4051   4054   4055     1  0.0000000  3.3472000  1
   4053   4051   4054   4055     1  0.0000000  0.0000000  2
   4053   4051   4054   4055     1  180.0000771  0.3347200  3
   4053   4051   4054   4056     1  180.0000771  0.0000000  2
   4055   4054   4056   4057     1  0.0000000  7.9496000  1
   4055   4054   4056   4057     1  180.0000771  9.6232000  2
   4059   4062   4065   4066     1  0.0000000  0.6508444  3
   4059   4062   4065   4067     1  0.0000000  0.6508444  3
   4060   4059   4062   4065     1  0.0000000  0.6508444  3
   4060   4059   4062   4063     1  0.0000000  0.6508444  3
   4060   4059   4062   4064     1  0.0000000  0.6508444  3
   4061   4059   4062   4065     1  0.0000000  0.6508444  3
   4061   4059   4062   4063     1  0.0000000  0.6508444  3
   4061   4059   4062   4064     1  0.0000000  0.6508444  3
   4063   4062   4065   4068     1  0.0000000  0.6508444  3
   4063   4062   4065   4066     1  0.0000000  0.6508444  3
   4063   4062   4065   4067     1  0.0000000  0.6508444  3
   4063   4062   4059   4089     1  0.0000000  1.0460000  1
   4063   4062   4059   4089     1  0.0000000  0.0000000  3
   4064   4062   4065   4068     1  0.0000000  0.6508444  3
   4064   4062   4065   4066     1  0.0000000  0.6508444  3
   4064   4062   4065   4067     1  0.0000000  0.6508444  3
   4064   4062   4059   4089     1  0.0000000  1.0460000  1
   4064   4062   4059   4089     1  0.0000000  0.0000000  3
   4065   4068   4069   4070     1  0.0000000  1.2552000  3
   4065   4068   4069   4071     1  0.0000000  1.2552000  3
   4065   4068   4079   4080     1  0.0000000  1.2552000  3
   4065   4068   4079   4081     1  0.0000000  1.2552000  3
   4066   4065   4068   4069     1  0.0000000  1.2552000  3
   4066   4065   4068   4079     1  0.0000000  1.2552000  3
   4067   4065   4068   4069     1  0.0000000  1.2552000  3
   4067   4065   4068   4079     1  0.0000000  1.2552000  3
   4068   4069   4072   4073     1  0.0000000  0.6508444  3
   4068   4069   4072   4074     1  0.0000000  0.6508444  3
   4068   4079   4082   4083     1  0.0000000  0.6508444  3
   4068   4079   4082   4084     1  0.0000000  0.6508444  3
   4069   4068   4079   4080     1  0.0000000  1.2552000  3
   4069   4068   4079   4081     1  0.0000000  1.2552000  3
   4070   4069   4072   4075     1  0.0000000  0.6508444  3
   4070   4069   4072   4073     1  0.0000000  0.6508444  3
   4070   4069   4072   4074     1  0.0000000  0.6508444  3
   4070   4069   4068   4079     1  0.0000000  1.2552000  3
   4071   4069   4072   4075     1  0.0000000  0.6508444  3
   4071   4069   4072   4073     1  0.0000000  0.6508444  3
   4071   4069   4072   4074     1  0.0000000  0.6508444  3
   4071   4069   4068   4079     1  0.0000000  1.2552000  3
   4072   4075   4077   4078     1  180.0000771  9.6232000  2
   4073   4072   4075   4076     1  0.0000000  3.3472000  1
   4073   4072   4075   4076     1  0.0000000  0.0000000  2
   4073   4072   4075   4076     1  180.0000771  0.3347200  3
   4073   4072   4075   4077     1  180.0000771  0.0000000  2
   4074   4072   4075   4076     1  0.0000000  3.3472000  1
   4074   4072   4075   4076     1  0.0000000  0.0000000  2
   4074   4072   4075   4076     1  180.0000771  0.3347200  3
   4074   4072   4075   4077     1  180.0000771  0.0000000  2
   4076   4075   4077   4078     1  0.0000000  7.9496000  1
   4076   4075   4077   4078     1  180.0000771  9.6232000  2
   4080   4079   4082   4085     1  0.0000000  0.6508444  3
   4080   4079   4082   4083     1  0.0000000  0.6508444  3
   4080   4079   4082   4084     1  0.0000000  0.6508444  3
   4081   4079   4082   4085     1  0.0000000  0.6508444  3
   4081   4079   4082   4083     1  0.0000000  0.6508444  3
   4081   4079   4082   4084     1  0.0000000  0.6508444  3
   4082   4085   4087   4088     1  180.0000771  9.6232000  2
   4083   4082   4085   4086     1  0.0000000  3.3472000  1
   4083   4082   4085   4086     1  0.0000000  0.0000000  2
   4083   4082   4085   4086     1  180.0000771  0.3347200  3
   4083   4082   4085   4087     1  180.0000771  0.0000000  2
   4084   4082   4085   4086     1  0.0000000  3.3472000  1
   4084   4082   4085   4086     1  0.0000000  0.0000000  2
   4084   4082   4085   4086     1  180.0000771  0.3347200  3
   4084   4082   4085   4087     1  180.0000771  0.0000000  2
   4086   4085   4087   4088     1  0.0000000  7.9496000  1
   4086   4085   4087   4088     1  180.0000771  9.6232000  2
   4090   4093   4096   4097     1  0.0000000  0.6508444  3
   4090   4093   4096   4098     1  0.0000000  0.6508444  3
   4091   4090   4093   4096     1  0.0000000  0.6508444  3
   4091   4090   4093   4094     1  0.0000000  0.6508444  3
   4091   4090   4093   4095     1  0.0000000  0.6508444  3
   4092   4090   4093   4096     1  0.0000000  0.6508444  3
   4092   4090   4093   4094     1  0.0000000  0.6508444  3
   4092   4090   4093   4095     1  0.0000000  0.6508444  3
   4094   4093   4090   4120     1  0.0000000  1.0460000  1
   4094   4093   4090   4120     1  0.0000000  0.0000000  3
   4094   4093   4096   4099     1  0.0000000  0.6508444  3
   4094   4093   4096   4097     1  0.0000000  0.6508444  3
   4094   4093   4096   4098     1  0.0000000  0.6508444  3
   4095   4093   4090   4120     1  0.0000000  1.0460000  1
   4095   4093   4090   4120     1  0.0000000  0.0000000  3
   4095   4093   4096   4099     1  0.0000000  0.6508444  3
   4095   4093   4096   4097     1  0.0000000  0.6508444  3
   4095   4093   4096   4098     1  0.0000000  0.6508444  3
   4096   4099   4100   4101     1  0.0000000  1.2552000  3
   4096   4099   4100   4102     1  0.0000000  1.2552000  3
   4096   4099   4110   4111     1  0.0000000  1.2552000  3
   4096   4099   4110   4112     1  0.0000000  1.2552000  3
   4097   4096   4099   4100     1  0.0000000  1.2552000  3
   4097   4096   4099   4110     1  0.0000000  1.2552000  3
   4098   4096   4099   4100     1  0.0000000  1.2552000  3
   4098   4096   4099   4110     1  0.0000000  1.2552000  3
   4099   4100   4103   4104     1  0.0000000  0.6508444  3
   4099   4100   4103   4105     1  0.0000000  0.6508444  3
   4099   4110   4113   4114     1  0.0000000  0.6508444  3
   4099   4110   4113   4115     1  0.0000000  0.6508444  3
   4100   4099   4110   4111     1  0.0000000  1.2552000  3
   4100   4099   4110   4112     1  0.0000000  1.2552000  3
   4101   4100   4099   4110     1  0.0000000  1.2552000  3
   4101   4100   4103   4106     1  0.0000000  0.6508444  3
   4101   4100   4103   4104     1  0.0000000  0.6508444  3
   4101   4100   4103   4105     1  0.0000000  0.6508444  3
   4102   4100   4099   4110     1  0.0000000  1.2552000  3
   4102   4100   4103   4106     1  0.0000000  0.6508444  3
   4102   4100   4103   4104     1  0.0000000  0.6508444  3
   4102   4100   4103   4105     1  0.0000000  0.6508444  3
   4103   4106   4108   4109     1  180.0000771  9.6232000  2
   4104   4103   4106   4107     1  0.0000000  3.3472000  1
   4104   4103   4106   4107     1  0.0000000  0.0000000  2
   4104   4103   4106   4107     1  180.0000771  0.3347200  3
   4104   4103   4106   4108     1  180.0000771  0.0000000  2
   4105   4103   4106   4107     1  0.0000000  3.3472000  1
   4105   4103   4106   4107     1  0.0000000  0.0000000  2
   4105   4103   4106   4107     1  180.0000771  0.3347200  3
   4105   4103   4106   4108     1  180.0000771  0.0000000  2
   4107   4106   4108   4109     1  0.0000000  7.9496000  1
   4107   4106   4108   4109     1  180.0000771  9.6232000  2
   4111   4110   4113   4116     1  0.0000000  0.6508444  3
   4111   4110   4113   4114     1  0.0000000  0.6508444  3
   4111   4110   4113   4115     1  0.0000000  0.6508444  3
   4112   4110   4113   4116     1  0.0000000  0.6508444  3
   4112   4110   4113   4114     1  0.0000000  0.6508444  3
   4112   4110   4113   4115     1  0.0000000  0.6508444  3
   4113   4116   4118   4119     1  180.0000771  9.6232000  2
   4114   4113   4116   4117     1  0.0000000  3.3472000  1
   4114   4113   4116   4117     1  0.0000000  0.0000000  2
   4114   4113   4116   4117     1  180.0000771  0.3347200  3
   4114   4113   4116   4118     1  180.0000771  0.0000000  2
   4115   4113   4116   4117     1  0.0000000  3.3472000  1
   4115   4113   4116   4117     1  0.0000000  0.0000000  2
   4115   4113   4116   4117     1  180.0000771  0.3347200  3
   4115   4113   4116   4118     1  180.0000771  0.0000000  2
   4117   4116   4118   4119     1  0.0000000  7.9496000  1
   4117   4116   4118   4119     1  180.0000771  9.6232000  2
   4121   4124   4127   4128     1  0.0000000  0.6508444  3
   4121   4124   4127   4129     1  0.0000000  0.6508444  3
   4122   4121   4124   4127     1  0.0000000  0.6508444  3
   4122   4121   4124   4125     1  0.0000000  0.6508444  3
   4122   4121   4124   4126     1  0.0000000  0.6508444  3
   4123   4121   4124   4127     1  0.0000000  0.6508444  3
   4123   4121   4124   4125     1  0.0000000  0.6508444  3
   4123   4121   4124   4126     1  0.0000000  0.6508444  3
   4125   4124   4127   4130     1  0.0000000  0.6508444  3
   4125   4124   4127   4128     1  0.0000000  0.6508444  3
   4125   4124   4127   4129     1  0.0000000  0.6508444  3
   4125   4124   4121   4151     1  0.0000000  1.0460000  1
   4125   4124   4121   4151     1  0.0000000  0.0000000  3
   4126   4124   4127   4130     1  0.0000000  0.6508444  3
   4126   4124   4127   4128     1  0.0000000  0.6508444  3
   4126   4124   4127   4129     1  0.0000000  0.6508444  3
   4126   4124   4121   4151     1  0.0000000  1.0460000  1
   4126   4124   4121   4151     1  0.0000000  0.0000000  3
   4127   4130   4131   4132     1  0.0000000  1.2552000  3
   4127   4130   4131   4133     1  0.0000000  1.2552000  3
   4127   4130   4141   4142     1  0.0000000  1.2552000  3
   4127   4130   4141   4143     1  0.0000000  1.2552000  3
   4128   4127   4130   4131     1  0.0000000  1.2552000  3
   4128   4127   4130   4141     1  0.0000000  1.2552000  3
   4129   4127   4130   4131     1  0.0000000  1.2552000  3
   4129   4127   4130   4141     1  0.0000000  1.2552000  3
   4130   4131   4134   4135     1  0.0000000  0.6508444  3
   4130   4131   4134   4136     1  0.0000000  0.6508444  3
   4130   4141   4144   4145     1  0.0000000  0.6508444  3
   4130   4141   4144   4146     1  0.0000000  0.6508444  3
   4131   4130   4141   4142     1  0.0000000  1.2552000  3
   4131   4130   4141   4143     1  0.0000000  1.2552000  3
   4132   4131   4134   4137     1  0.0000000  0.6508444  3
   4132   4131   4134   4135     1  0.0000000  0.6508444  3
   4132   4131   4134   4136     1  0.0000000  0.6508444  3
   4132   4131   4130   4141     1  0.0000000  1.2552000  3
   4133   4131   4134   4137     1  0.0000000  0.6508444  3
   4133   4131   4134   4135     1  0.0000000  0.6508444  3
   4133   4131   4134   4136     1  0.0000000  0.6508444  3
   4133   4131   4130   4141     1  0.0000000  1.2552000  3
   4134   4137   4139   4140     1  180.0000771  9.6232000  2
   4135   4134   4137   4138     1  0.0000000  3.3472000  1
   4135   4134   4137   4138     1  0.0000000  0.0000000  2
   4135   4134   4137   4138     1  180.0000771  0.3347200  3
   4135   4134   4137   4139     1  180.0000771  0.0000000  2
   4136   4134   4137   4138     1  0.0000000  3.3472000  1
   4136   4134   4137   4138     1  0.0000000  0.0000000  2
   4136   4134   4137   4138     1  180.0000771  0.3347200  3
   4136   4134   4137   4139     1  180.0000771  0.0000000  2
   4138   4137   4139   4140     1  0.0000000  7.9496000  1
   4138   4137   4139   4140     1  180.0000771  9.6232000  2
   4142   4141   4144   4147     1  0.0000000  0.6508444  3
   4142   4141   4144   4145     1  0.0000000  0.6508444  3
   4142   4141   4144   4146     1  0.0000000  0.6508444  3
   4143   4141   4144   4147     1  0.0000000  0.6508444  3
   4143   4141   4144   4145     1  0.0000000  0.6508444  3
   4143   4141   4144   4146     1  0.0000000  0.6508444  3
   4144   4147   4149   4150     1  180.0000771  9.6232000  2
   4145   4144   4147   4148     1  0.0000000  3.3472000  1
   4145   4144   4147   4148     1  0.0000000  0.0000000  2
   4145   4144   4147   4148     1  180.0000771  0.3347200  3
   4145   4144   4147   4149     1  180.0000771  0.0000000  2
   4146   4144   4147   4148     1  0.0000000  3.3472000  1
   4146   4144   4147   4148     1  0.0000000  0.0000000  2
   4146   4144   4147   4148     1  180.0000771  0.3347200  3
   4146   4144   4147   4149     1  180.0000771  0.0000000  2
   4148   4147   4149   4150     1  0.0000000  7.9496000  1
   4148   4147   4149   4150     1  180.0000771  9.6232000  2
   4152   4155   4158   4159     1  0.0000000  0.6508444  3
   4152   4155   4158   4160     1  0.0000000  0.6508444  3
   4153   4152   4155   4158     1  0.0000000  0.6508444  3
   4153   4152   4155   4156     1  0.0000000  0.6508444  3
   4153   4152   4155   4157     1  0.0000000  0.6508444  3
   4154   4152   4155   4158     1  0.0000000  0.6508444  3
   4154   4152   4155   4156     1  0.0000000  0.6508444  3
   4154   4152   4155   4157     1  0.0000000  0.6508444  3
   4156   4155   4152   4182     1  0.0000000  1.0460000  1
   4156   4155   4152   4182     1  0.0000000  0.0000000  3
   4156   4155   4158   4161     1  0.0000000  0.6508444  3
   4156   4155   4158   4159     1  0.0000000  0.6508444  3
   4156   4155   4158   4160     1  0.0000000  0.6508444  3
   4157   4155   4152   4182     1  0.0000000  1.0460000  1
   4157   4155   4152   4182     1  0.0000000  0.0000000  3
   4157   4155   4158   4161     1  0.0000000  0.6508444  3
   4157   4155   4158   4159     1  0.0000000  0.6508444  3
   4157   4155   4158   4160     1  0.0000000  0.6508444  3
   4158   4161   4162   4163     1  0.0000000  1.2552000  3
   4158   4161   4162   4164     1  0.0000000  1.2552000  3
   4158   4161   4172   4173     1  0.0000000  1.2552000  3
   4158   4161   4172   4174     1  0.0000000  1.2552000  3
   4159   4158   4161   4162     1  0.0000000  1.2552000  3
   4159   4158   4161   4172     1  0.0000000  1.2552000  3
   4160   4158   4161   4162     1  0.0000000  1.2552000  3
   4160   4158   4161   4172     1  0.0000000  1.2552000  3
   4161   4162   4165   4166     1  0.0000000  0.6508444  3
   4161   4162   4165   4167     1  0.0000000  0.6508444  3
   4161   4172   4175   4176     1  0.0000000  0.6508444  3
   4161   4172   4175   4177     1  0.0000000  0.6508444  3
   4162   4161   4172   4173     1  0.0000000  1.2552000  3
   4162   4161   4172   4174     1  0.0000000  1.2552000  3
   4163   4162   4161   4172     1  0.0000000  1.2552000  3
   4163   4162   4165   4168     1  0.0000000  0.6508444  3
   4163   4162   4165   4166     1  0.0000000  0.6508444  3
   4163   4162   4165   4167     1  0.0000000  0.6508444  3
   4164   4162   4161   4172     1  0.0000000  1.2552000  3
   4164   4162   4165   4168     1  0.0000000  0.6508444  3
   4164   4162   4165   4166     1  0.0000000  0.6508444  3
   4164   4162   4165   4167     1  0.0000000  0.6508444  3
   4165   4168   4170   4171     1  180.0000771  9.6232000  2
   4166   4165   4168   4169     1  0.0000000  3.3472000  1
   4166   4165   4168   4169     1  0.0000000  0.0000000  2
   4166   4165   4168   4169     1  180.0000771  0.3347200  3
   4166   4165   4168   4170     1  180.0000771  0.0000000  2
   4167   4165   4168   4169     1  0.0000000  3.3472000  1
   4167   4165   4168   4169     1  0.0000000  0.0000000  2
   4167   4165   4168   4169     1  180.0000771  0.3347200  3
   4167   4165   4168   4170     1  180.0000771  0.0000000  2
   4169   4168   4170   4171     1  0.0000000  7.9496000  1
   4169   4168   4170   4171     1  180.0000771  9.6232000  2
   4173   4172   4175   4178     1  0.0000000  0.6508444  3
   4173   4172   4175   4176     1  0.0000000  0.6508444  3
   4173   4172   4175   4177     1  0.0000000  0.6508444  3
   4174   4172   4175   4178     1  0.0000000  0.6508444  3
   4174   4172   4175   4176     1  0.0000000  0.6508444  3
   4174   4172   4175   4177     1  0.0000000  0.6508444  3
   4175   4178   4180   4181     1  180.0000771  9.6232000  2
   4176   4175   4178   4179     1  0.0000000  3.3472000  1
   4176   4175   4178   4179     1  0.0000000  0.0000000  2
   4176   4175   4178   4179     1  180.0000771  0.3347200  3
   4176   4175   4178   4180     1  180.0000771  0.0000000  2
   4177   4175   4178   4179     1  0.0000000  3.3472000  1
   4177   4175   4178   4179     1  0.0000000  0.0000000  2
   4177   4175   4178   4179     1  180.0000771  0.3347200  3
   4177   4175   4178   4180     1  180.0000771  0.0000000  2
   4179   4178   4180   4181     1  0.0000000  7.9496000  1
   4179   4178   4180   4181     1  180.0000771  9.6232000  2
   4183   4186   4189   4190     1  0.0000000  0.6508444  3
   4183   4186   4189   4191     1  0.0000000  0.6508444  3
   4184   4183   4186   4189     1  0.0000000  0.6508444  3
   4184   4183   4186   4187     1  0.0000000  0.6508444  3
   4184   4183   4186   4188     1  0.0000000  0.6508444  3
   4185   4183   4186   4189     1  0.0000000  0.6508444  3
   4185   4183   4186   4187     1  0.0000000  0.6508444  3
   4185   4183   4186   4188     1  0.0000000  0.6508444  3
   4187   4186   4189   4192     1  0.0000000  0.6508444  3
   4187   4186   4189   4190     1  0.0000000  0.6508444  3
   4187   4186   4189   4191     1  0.0000000  0.6508444  3
   4187   4186   4183   4213     1  0.0000000  1.0460000  1
   4187   4186   4183   4213     1  0.0000000  0.0000000  3
   4188   4186   4189   4192     1  0.0000000  0.6508444  3
   4188   4186   4189   4190     1  0.0000000  0.6508444  3
   4188   4186   4189   4191     1  0.0000000  0.6508444  3
   4188   4186   4183   4213     1  0.0000000  1.0460000  1
   4188   4186   4183   4213     1  0.0000000  0.0000000  3
   4189   4192   4193   4194     1  0.0000000  1.2552000  3
   4189   4192   4193   4195     1  0.0000000  1.2552000  3
   4189   4192   4203   4204     1  0.0000000  1.2552000  3
   4189   4192   4203   4205     1  0.0000000  1.2552000  3
   4190   4189   4192   4193     1  0.0000000  1.2552000  3
   4190   4189   4192   4203     1  0.0000000  1.2552000  3
   4191   4189   4192   4193     1  0.0000000  1.2552000  3
   4191   4189   4192   4203     1  0.0000000  1.2552000  3
   4192   4193   4196   4197     1  0.0000000  0.6508444  3
   4192   4193   4196   4198     1  0.0000000  0.6508444  3
   4192   4203   4206   4207     1  0.0000000  0.6508444  3
   4192   4203   4206   4208     1  0.0000000  0.6508444  3
   4193   4192   4203   4204     1  0.0000000  1.2552000  3
   4193   4192   4203   4205     1  0.0000000  1.2552000  3
   4194   4193   4196   4199     1  0.0000000  0.6508444  3
   4194   4193   4196   4197     1  0.0000000  0.6508444  3
   4194   4193   4196   4198     1  0.0000000  0.6508444  3
   4194   4193   4192   4203     1  0.0000000  1.2552000  3
   4195   4193   4196   4199     1  0.0000000  0.6508444  3
   4195   4193   4196   4197     1  0.0000000  0.6508444  3
   4195   4193   4196   4198     1  0.0000000  0.6508444  3
   4195   4193   4192   4203     1  0.0000000  1.2552000  3
   4196   4199   4201   4202     1  180.0000771  9.6232000  2
   4197   4196   4199   4200     1  0.0000000  3.3472000  1
   4197   4196   4199   4200     1  0.0000000  0.0000000  2
   4197   4196   4199   4200     1  180.0000771  0.3347200  3
   4197   4196   4199   4201     1  180.0000771  0.0000000  2
   4198   4196   4199   4200     1  0.0000000  3.3472000  1
   4198   4196   4199   4200     1  0.0000000  0.0000000  2
   4198   4196   4199   4200     1  180.0000771  0.3347200  3
   4198   4196   4199   4201     1  180.0000771  0.0000000  2
   4200   4199   4201   4202     1  0.0000000  7.9496000  1
   4200   4199   4201   4202     1  180.0000771  9.6232000  2
   4204   4203   4206   4209     1  0.0000000  0.6508444  3
   4204   4203   4206   4207     1  0.0000000  0.6508444  3
   4204   4203   4206   4208     1  0.0000000  0.6508444  3
   4205   4203   4206   4209     1  0.0000000  0.6508444  3
   4205   4203   4206   4207     1  0.0000000  0.6508444  3
   4205   4203   4206   4208     1  0.0000000  0.6508444  3
   4206   4209   4211   4212     1  180.0000771  9.6232000  2
   4207   4206   4209   4210     1  0.0000000  3.3472000  1
   4207   4206   4209   4210     1  0.0000000  0.0000000  2
   4207   4206   4209   4210     1  180.0000771  0.3347200  3
   4207   4206   4209   4211     1  180.0000771  0.0000000  2
   4208   4206   4209   4210     1  0.0000000  3.3472000  1
   4208   4206   4209   4210     1  0.0000000  0.0000000  2
   4208   4206   4209   4210     1  180.0000771  0.3347200  3
   4208   4206   4209   4211     1  180.0000771  0.0000000  2
   4210   4209   4211   4212     1  0.0000000  7.9496000  1
   4210   4209   4211   4212     1  180.0000771  9.6232000  2
   4214   4217   4220   4221     1  0.0000000  0.6508444  3
   4214   4217   4220   4222     1  0.0000000  0.6508444  3
   4215   4214   4217   4220     1  0.0000000  0.6508444  3
   4215   4214   4217   4218     1  0.0000000  0.6508444  3
   4215   4214   4217   4219     1  0.0000000  0.6508444  3
   4216   4214   4217   4220     1  0.0000000  0.6508444  3
   4216   4214   4217   4218     1  0.0000000  0.6508444  3
   4216   4214   4217   4219     1  0.0000000  0.6508444  3
   4218   4217   4214   4244     1  0.0000000  1.0460000  1
   4218   4217   4214   4244     1  0.0000000  0.0000000  3
   4218   4217   4220   4223     1  0.0000000  0.6508444  3
   4218   4217   4220   4221     1  0.0000000  0.6508444  3
   4218   4217   4220   4222     1  0.0000000  0.6508444  3
   4219   4217   4214   4244     1  0.0000000  1.0460000  1
   4219   4217   4214   4244     1  0.0000000  0.0000000  3
   4219   4217   4220   4223     1  0.0000000  0.6508444  3
   4219   4217   4220   4221     1  0.0000000  0.6508444  3
   4219   4217   4220   4222     1  0.0000000  0.6508444  3
   4220   4223   4224   4225     1  0.0000000  1.2552000  3
   4220   4223   4224   4226     1  0.0000000  1.2552000  3
   4220   4223   4234   4235     1  0.0000000  1.2552000  3
   4220   4223   4234   4236     1  0.0000000  1.2552000  3
   4221   4220   4223   4224     1  0.0000000  1.2552000  3
   4221   4220   4223   4234     1  0.0000000  1.2552000  3
   4222   4220   4223   4224     1  0.0000000  1.2552000  3
   4222   4220   4223   4234     1  0.0000000  1.2552000  3
   4223   4224   4227   4228     1  0.0000000  0.6508444  3
   4223   4224   4227   4229     1  0.0000000  0.6508444  3
   4223   4234   4237   4238     1  0.0000000  0.6508444  3
   4223   4234   4237   4239     1  0.0000000  0.6508444  3
   4224   4223   4234   4235     1  0.0000000  1.2552000  3
   4224   4223   4234   4236     1  0.0000000  1.2552000  3
   4225   4224   4223   4234     1  0.0000000  1.2552000  3
   4225   4224   4227   4230     1  0.0000000  0.6508444  3
   4225   4224   4227   4228     1  0.0000000  0.6508444  3
   4225   4224   4227   4229     1  0.0000000  0.6508444  3
   4226   4224   4223   4234     1  0.0000000  1.2552000  3
   4226   4224   4227   4230     1  0.0000000  0.6508444  3
   4226   4224   4227   4228     1  0.0000000  0.6508444  3
   4226   4224   4227   4229     1  0.0000000  0.6508444  3
   4227   4230   4232   4233     1  180.0000771  9.6232000  2
   4228   4227   4230   4231     1  0.0000000  3.3472000  1
   4228   4227   4230   4231     1  0.0000000  0.0000000  2
   4228   4227   4230   4231     1  180.0000771  0.3347200  3
   4228   4227   4230   4232     1  180.0000771  0.0000000  2
   4229   4227   4230   4231     1  0.0000000  3.3472000  1
   4229   4227   4230   4231     1  0.0000000  0.0000000  2
   4229   4227   4230   4231     1  180.0000771  0.3347200  3
   4229   4227   4230   4232     1  180.0000771  0.0000000  2
   4231   4230   4232   4233     1  0.0000000  7.9496000  1
   4231   4230   4232   4233     1  180.0000771  9.6232000  2
   4235   4234   4237   4240     1  0.0000000  0.6508444  3
   4235   4234   4237   4238     1  0.0000000  0.6508444  3
   4235   4234   4237   4239     1  0.0000000  0.6508444  3
   4236   4234   4237   4240     1  0.0000000  0.6508444  3
   4236   4234   4237   4238     1  0.0000000  0.6508444  3
   4236   4234   4237   4239     1  0.0000000  0.6508444  3
   4237   4240   4242   4243     1  180.0000771  9.6232000  2
   4238   4237   4240   4241     1  0.0000000  3.3472000  1
   4238   4237   4240   4241     1  0.0000000  0.0000000  2
   4238   4237   4240   4241     1  180.0000771  0.3347200  3
   4238   4237   4240   4242     1  180.0000771  0.0000000  2
   4239   4237   4240   4241     1  0.0000000  3.3472000  1
   4239   4237   4240   4241     1  0.0000000  0.0000000  2
   4239   4237   4240   4241     1  180.0000771  0.3347200  3
   4239   4237   4240   4242     1  180.0000771  0.0000000  2
   4241   4240   4242   4243     1  0.0000000  7.9496000  1
   4241   4240   4242   4243     1  180.0000771  9.6232000  2
   4245   4248   4251   4252     1  0.0000000  0.6508444  3
   4245   4248   4251   4253     1  0.0000000  0.6508444  3
   4246   4245   4248   4251     1  0.0000000  0.6508444  3
   4246   4245   4248   4249     1  0.0000000  0.6508444  3
   4246   4245   4248   4250     1  0.0000000  0.6508444  3
   4247   4245   4248   4251     1  0.0000000  0.6508444  3
   4247   4245   4248   4249     1  0.0000000  0.6508444  3
   4247   4245   4248   4250     1  0.0000000  0.6508444  3
   4249   4248   4251   4254     1  0.0000000  0.6508444  3
   4249   4248   4251   4252     1  0.0000000  0.6508444  3
   4249   4248   4251   4253     1  0.0000000  0.6508444  3
   4249   4248   4245   4275     1  0.0000000  1.0460000  1
   4249   4248   4245   4275     1  0.0000000  0.0000000  3
   4250   4248   4251   4254     1  0.0000000  0.6508444  3
   4250   4248   4251   4252     1  0.0000000  0.6508444  3
   4250   4248   4251   4253     1  0.0000000  0.6508444  3
   4250   4248   4245   4275     1  0.0000000  1.0460000  1
   4250   4248   4245   4275     1  0.0000000  0.0000000  3
   4251   4254   4255   4256     1  0.0000000  1.2552000  3
   4251   4254   4255   4257     1  0.0000000  1.2552000  3
   4251   4254   4265   4266     1  0.0000000  1.2552000  3
   4251   4254   4265   4267     1  0.0000000  1.2552000  3
   4252   4251   4254   4255     1  0.0000000  1.2552000  3
   4252   4251   4254   4265     1  0.0000000  1.2552000  3
   4253   4251   4254   4255     1  0.0000000  1.2552000  3
   4253   4251   4254   4265     1  0.0000000  1.2552000  3
   4254   4255   4258   4259     1  0.0000000  0.6508444  3
   4254   4255   4258   4260     1  0.0000000  0.6508444  3
   4254   4265   4268   4269     1  0.0000000  0.6508444  3
   4254   4265   4268   4270     1  0.0000000  0.6508444  3
   4255   4254   4265   4266     1  0.0000000  1.2552000  3
   4255   4254   4265   4267     1  0.0000000  1.2552000  3
   4256   4255   4258   4261     1  0.0000000  0.6508444  3
   4256   4255   4258   4259     1  0.0000000  0.6508444  3
   4256   4255   4258   4260     1  0.0000000  0.6508444  3
   4256   4255   4254   4265     1  0.0000000  1.2552000  3
   4257   4255   4258   4261     1  0.0000000  0.6508444  3
   4257   4255   4258   4259     1  0.0000000  0.6508444  3
   4257   4255   4258   4260     1  0.0000000  0.6508444  3
   4257   4255   4254   4265     1  0.0000000  1.2552000  3
   4258   4261   4263   4264     1  180.0000771  9.6232000  2
   4259   4258   4261   4262     1  0.0000000  3.3472000  1
   4259   4258   4261   4262     1  0.0000000  0.0000000  2
   4259   4258   4261   4262     1  180.0000771  0.3347200  3
   4259   4258   4261   4263     1  180.0000771  0.0000000  2
   4260   4258   4261   4262     1  0.0000000  3.3472000  1
   4260   4258   4261   4262     1  0.0000000  0.0000000  2
   4260   4258   4261   4262     1  180.0000771  0.3347200  3
   4260   4258   4261   4263     1  180.0000771  0.0000000  2
   4262   4261   4263   4264     1  0.0000000  7.9496000  1
   4262   4261   4263   4264     1  180.0000771  9.6232000  2
   4266   4265   4268   4271     1  0.0000000  0.6508444  3
   4266   4265   4268   4269     1  0.0000000  0.6508444  3
   4266   4265   4268   4270     1  0.0000000  0.6508444  3
   4267   4265   4268   4271     1  0.0000000  0.6508444  3
   4267   4265   4268   4269     1  0.0000000  0.6508444  3
   4267   4265   4268   4270     1  0.0000000  0.6508444  3
   4268   4271   4273   4274     1  180.0000771  9.6232000  2
   4269   4268   4271   4272     1  0.0000000  3.3472000  1
   4269   4268   4271   4272     1  0.0000000  0.0000000  2
   4269   4268   4271   4272     1  180.0000771  0.3347200  3
   4269   4268   4271   4273     1  180.0000771  0.0000000  2
   4270   4268   4271   4272     1  0.0000000  3.3472000  1
   4270   4268   4271   4272     1  0.0000000  0.0000000  2
   4270   4268   4271   4272     1  180.0000771  0.3347200  3
   4270   4268   4271   4273     1  180.0000771  0.0000000  2
   4272   4271   4273   4274     1  0.0000000  7.9496000  1
   4272   4271   4273   4274     1  180.0000771  9.6232000  2
   4276   4279   4282   4283     1  0.0000000  0.6508444  3
   4276   4279   4282   4284     1  0.0000000  0.6508444  3
   4277   4276   4279   4282     1  0.0000000  0.6508444  3
   4277   4276   4279   4280     1  0.0000000  0.6508444  3
   4277   4276   4279   4281     1  0.0000000  0.6508444  3
   4278   4276   4279   4282     1  0.0000000  0.6508444  3
   4278   4276   4279   4280     1  0.0000000  0.6508444  3
   4278   4276   4279   4281     1  0.0000000  0.6508444  3
   4280   4279   4276   4306     1  0.0000000  1.0460000  1
   4280   4279   4276   4306     1  0.0000000  0.0000000  3
   4280   4279   4282   4285     1  0.0000000  0.6508444  3
   4280   4279   4282   4283     1  0.0000000  0.6508444  3
   4280   4279   4282   4284     1  0.0000000  0.6508444  3
   4281   4279   4276   4306     1  0.0000000  1.0460000  1
   4281   4279   4276   4306     1  0.0000000  0.0000000  3
   4281   4279   4282   4285     1  0.0000000  0.6508444  3
   4281   4279   4282   4283     1  0.0000000  0.6508444  3
   4281   4279   4282   4284     1  0.0000000  0.6508444  3
   4282   4285   4286   4287     1  0.0000000  1.2552000  3
   4282   4285   4286   4288     1  0.0000000  1.2552000  3
   4282   4285   4296   4297     1  0.0000000  1.2552000  3
   4282   4285   4296   4298     1  0.0000000  1.2552000  3
   4283   4282   4285   4286     1  0.0000000  1.2552000  3
   4283   4282   4285   4296     1  0.0000000  1.2552000  3
   4284   4282   4285   4286     1  0.0000000  1.2552000  3
   4284   4282   4285   4296     1  0.0000000  1.2552000  3
   4285   4286   4289   4290     1  0.0000000  0.6508444  3
   4285   4286   4289   4291     1  0.0000000  0.6508444  3
   4285   4296   4299   4300     1  0.0000000  0.6508444  3
   4285   4296   4299   4301     1  0.0000000  0.6508444  3
   4286   4285   4296   4297     1  0.0000000  1.2552000  3
   4286   4285   4296   4298     1  0.0000000  1.2552000  3
   4287   4286   4285   4296     1  0.0000000  1.2552000  3
   4287   4286   4289   4292     1  0.0000000  0.6508444  3
   4287   4286   4289   4290     1  0.0000000  0.6508444  3
   4287   4286   4289   4291     1  0.0000000  0.6508444  3
   4288   4286   4285   4296     1  0.0000000  1.2552000  3
   4288   4286   4289   4292     1  0.0000000  0.6508444  3
   4288   4286   4289   4290     1  0.0000000  0.6508444  3
   4288   4286   4289   4291     1  0.0000000  0.6508444  3
   4289   4292   4294   4295     1  180.0000771  9.6232000  2
   4290   4289   4292   4293     1  0.0000000  3.3472000  1
   4290   4289   4292   4293     1  0.0000000  0.0000000  2
   4290   4289   4292   4293     1  180.0000771  0.3347200  3
   4290   4289   4292   4294     1  180.0000771  0.0000000  2
   4291   4289   4292   4293     1  0.0000000  3.3472000  1
   4291   4289   4292   4293     1  0.0000000  0.0000000  2
   4291   4289   4292   4293     1  180.0000771  0.3347200  3
   4291   4289   4292   4294     1  180.0000771  0.0000000  2
   4293   4292   4294   4295     1  0.0000000  7.9496000  1
   4293   4292   4294   4295     1  180.0000771  9.6232000  2
   4297   4296   4299   4302     1  0.0000000  0.6508444  3
   4297   4296   4299   4300     1  0.0000000  0.6508444  3
   4297   4296   4299   4301     1  0.0000000  0.6508444  3
   4298   4296   4299   4302     1  0.0000000  0.6508444  3
   4298   4296   4299   4300     1  0.0000000  0.6508444  3
   4298   4296   4299   4301     1  0.0000000  0.6508444  3
   4299   4302   4304   4305     1  180.0000771  9.6232000  2
   4300   4299   4302   4303     1  0.0000000  3.3472000  1
   4300   4299   4302   4303     1  0.0000000  0.0000000  2
   4300   4299   4302   4303     1  180.0000771  0.3347200  3
   4300   4299   4302   4304     1  180.0000771  0.0000000  2
   4301   4299   4302   4303     1  0.0000000  3.3472000  1
   4301   4299   4302   4303     1  0.0000000  0.0000000  2
   4301   4299   4302   4303     1  180.0000771  0.3347200  3
   4301   4299   4302   4304     1  180.0000771  0.0000000  2
   4303   4302   4304   4305     1  0.0000000  7.9496000  1
   4303   4302   4304   4305     1  180.0000771  9.6232000  2
   4307   4310   4313   4314     1  0.0000000  0.6508444  3
   4307   4310   4313   4315     1  0.0000000  0.6508444  3
   4308   4307   4310   4313     1  0.0000000  0.6508444  3
   4308   4307   4310   4311     1  0.0000000  0.6508444  3
   4308   4307   4310   4312     1  0.0000000  0.6508444  3
   4309   4307   4310   4313     1  0.0000000  0.6508444  3
   4309   4307   4310   4311     1  0.0000000  0.6508444  3
   4309   4307   4310   4312     1  0.0000000  0.6508444  3
   4311   4310   4313   4316     1  0.0000000  0.6508444  3
   4311   4310   4313   4314     1  0.0000000  0.6508444  3
   4311   4310   4313   4315     1  0.0000000  0.6508444  3
   4311   4310   4307   4337     1  0.0000000  1.0460000  1
   4311   4310   4307   4337     1  0.0000000  0.0000000  3
   4312   4310   4313   4316     1  0.0000000  0.6508444  3
   4312   4310   4313   4314     1  0.0000000  0.6508444  3
   4312   4310   4313   4315     1  0.0000000  0.6508444  3
   4312   4310   4307   4337     1  0.0000000  1.0460000  1
   4312   4310   4307   4337     1  0.0000000  0.0000000  3
   4313   4316   4317   4318     1  0.0000000  1.2552000  3
   4313   4316   4317   4319     1  0.0000000  1.2552000  3
   4313   4316   4327   4328     1  0.0000000  1.2552000  3
   4313   4316   4327   4329     1  0.0000000  1.2552000  3
   4314   4313   4316   4317     1  0.0000000  1.2552000  3
   4314   4313   4316   4327     1  0.0000000  1.2552000  3
   4315   4313   4316   4317     1  0.0000000  1.2552000  3
   4315   4313   4316   4327     1  0.0000000  1.2552000  3
   4316   4317   4320   4321     1  0.0000000  0.6508444  3
   4316   4317   4320   4322     1  0.0000000  0.6508444  3
   4316   4327   4330   4331     1  0.0000000  0.6508444  3
   4316   4327   4330   4332     1  0.0000000  0.6508444  3
   4317   4316   4327   4328     1  0.0000000  1.2552000  3
   4317   4316   4327   4329     1  0.0000000  1.2552000  3
   4318   4317   4320   4323     1  0.0000000  0.6508444  3
   4318   4317   4320   4321     1  0.0000000  0.6508444  3
   4318   4317   4320   4322     1  0.0000000  0.6508444  3
   4318   4317   4316   4327     1  0.0000000  1.2552000  3
   4319   4317   4320   4323     1  0.0000000  0.6508444  3
   4319   4317   4320   4321     1  0.0000000  0.6508444  3
   4319   4317   4320   4322     1  0.0000000  0.6508444  3
   4319   4317   4316   4327     1  0.0000000  1.2552000  3
   4320   4323   4325   4326     1  180.0000771  9.6232000  2
   4321   4320   4323   4324     1  0.0000000  3.3472000  1
   4321   4320   4323   4324     1  0.0000000  0.0000000  2
   4321   4320   4323   4324     1  180.0000771  0.3347200  3
   4321   4320   4323   4325     1  180.0000771  0.0000000  2
   4322   4320   4323   4324     1  0.0000000  3.3472000  1
   4322   4320   4323   4324     1  0.0000000  0.0000000  2
   4322   4320   4323   4324     1  180.0000771  0.3347200  3
   4322   4320   4323   4325     1  180.0000771  0.0000000  2
   4324   4323   4325   4326     1  0.0000000  7.9496000  1
   4324   4323   4325   4326     1  180.0000771  9.6232000  2
   4328   4327   4330   4333     1  0.0000000  0.6508444  3
   4328   4327   4330   4331     1  0.0000000  0.6508444  3
   4328   4327   4330   4332     1  0.0000000  0.6508444  3
   4329   4327   4330   4333     1  0.0000000  0.6508444  3
   4329   4327   4330   4331     1  0.0000000  0.6508444  3
   4329   4327   4330   4332     1  0.0000000  0.6508444  3
   4330   4333   4335   4336     1  180.0000771  9.6232000  2
   4331   4330   4333   4334     1  0.0000000  3.3472000  1
   4331   4330   4333   4334     1  0.0000000  0.0000000  2
   4331   4330   4333   4334     1  180.0000771  0.3347200  3
   4331   4330   4333   4335     1  180.0000771  0.0000000  2
   4332   4330   4333   4334     1  0.0000000  3.3472000  1
   4332   4330   4333   4334     1  0.0000000  0.0000000  2
   4332   4330   4333   4334     1  180.0000771  0.3347200  3
   4332   4330   4333   4335     1  180.0000771  0.0000000  2
   4334   4333   4335   4336     1  0.0000000  7.9496000  1
   4334   4333   4335   4336     1  180.0000771  9.6232000  2
   4338   4341   4344   4345     1  0.0000000  0.6508444  3
   4338   4341   4344   4346     1  0.0000000  0.6508444  3
   4339   4338   4341   4344     1  0.0000000  0.6508444  3
   4339   4338   4341   4342     1  0.0000000  0.6508444  3
   4339   4338   4341   4343     1  0.0000000  0.6508444  3
   4340   4338   4341   4344     1  0.0000000  0.6508444  3
   4340   4338   4341   4342     1  0.0000000  0.6508444  3
   4340   4338   4341   4343     1  0.0000000  0.6508444  3
   4342   4341   4338   4368     1  0.0000000  1.0460000  1
   4342   4341   4338   4368     1  0.0000000  0.0000000  3
   4342   4341   4344   4347     1  0.0000000  0.6508444  3
   4342   4341   4344   4345     1  0.0000000  0.6508444  3
   4342   4341   4344   4346     1  0.0000000  0.6508444  3
   4343   4341   4338   4368     1  0.0000000  1.0460000  1
   4343   4341   4338   4368     1  0.0000000  0.0000000  3
   4343   4341   4344   4347     1  0.0000000  0.6508444  3
   4343   4341   4344   4345     1  0.0000000  0.6508444  3
   4343   4341   4344   4346     1  0.0000000  0.6508444  3
   4344   4347   4348   4349     1  0.0000000  1.2552000  3
   4344   4347   4348   4350     1  0.0000000  1.2552000  3
   4344   4347   4358   4359     1  0.0000000  1.2552000  3
   4344   4347   4358   4360     1  0.0000000  1.2552000  3
   4345   4344   4347   4348     1  0.0000000  1.2552000  3
   4345   4344   4347   4358     1  0.0000000  1.2552000  3
   4346   4344   4347   4348     1  0.0000000  1.2552000  3
   4346   4344   4347   4358     1  0.0000000  1.2552000  3
   4347   4348   4351   4352     1  0.0000000  0.6508444  3
   4347   4348   4351   4353     1  0.0000000  0.6508444  3
   4347   4358   4361   4362     1  0.0000000  0.6508444  3
   4347   4358   4361   4363     1  0.0000000  0.6508444  3
   4348   4347   4358   4359     1  0.0000000  1.2552000  3
   4348   4347   4358   4360     1  0.0000000  1.2552000  3
   4349   4348   4347   4358     1  0.0000000  1.2552000  3
   4349   4348   4351   4354     1  0.0000000  0.6508444  3
   4349   4348   4351   4352     1  0.0000000  0.6508444  3
   4349   4348   4351   4353     1  0.0000000  0.6508444  3
   4350   4348   4347   4358     1  0.0000000  1.2552000  3
   4350   4348   4351   4354     1  0.0000000  0.6508444  3
   4350   4348   4351   4352     1  0.0000000  0.6508444  3
   4350   4348   4351   4353     1  0.0000000  0.6508444  3
   4351   4354   4356   4357     1  180.0000771  9.6232000  2
   4352   4351   4354   4355     1  0.0000000  3.3472000  1
   4352   4351   4354   4355     1  0.0000000  0.0000000  2
   4352   4351   4354   4355     1  180.0000771  0.3347200  3
   4352   4351   4354   4356     1  180.0000771  0.0000000  2
   4353   4351   4354   4355     1  0.0000000  3.3472000  1
   4353   4351   4354   4355     1  0.0000000  0.0000000  2
   4353   4351   4354   4355     1  180.0000771  0.3347200  3
   4353   4351   4354   4356     1  180.0000771  0.0000000  2
   4355   4354   4356   4357     1  0.0000000  7.9496000  1
   4355   4354   4356   4357     1  180.0000771  9.6232000  2
   4359   4358   4361   4364     1  0.0000000  0.6508444  3
   4359   4358   4361   4362     1  0.0000000  0.6508444  3
   4359   4358   4361   4363     1  0.0000000  0.6508444  3
   4360   4358   4361   4364     1  0.0000000  0.6508444  3
   4360   4358   4361   4362     1  0.0000000  0.6508444  3
   4360   4358   4361   4363     1  0.0000000  0.6508444  3
   4361   4364   4366   4367     1  180.0000771  9.6232000  2
   4362   4361   4364   4365     1  0.0000000  3.3472000  1
   4362   4361   4364   4365     1  0.0000000  0.0000000  2
   4362   4361   4364   4365     1  180.0000771  0.3347200  3
   4362   4361   4364   4366     1  180.0000771  0.0000000  2
   4363   4361   4364   4365     1  0.0000000  3.3472000  1
   4363   4361   4364   4365     1  0.0000000  0.0000000  2
   4363   4361   4364   4365     1  180.0000771  0.3347200  3
   4363   4361   4364   4366     1  180.0000771  0.0000000  2
   4365   4364   4366   4367     1  0.0000000  7.9496000  1
   4365   4364   4366   4367     1  180.0000771  9.6232000  2
   4369   4372   4375   4376     1  0.0000000  0.6508444  3
   4369   4372   4375   4377     1  0.0000000  0.6508444  3
   4370   4369   4372   4375     1  0.0000000  0.6508444  3
   4370   4369   4372   4373     1  0.0000000  0.6508444  3
   4370   4369   4372   4374     1  0.0000000  0.6508444  3
   4371   4369   4372   4375     1  0.0000000  0.6508444  3
   4371   4369   4372   4373     1  0.0000000  0.6508444  3
   4371   4369   4372   4374     1  0.0000000  0.6508444  3
   4373   4372   4375   4378     1  0.0000000  0.6508444  3
   4373   4372   4375   4376     1  0.0000000  0.6508444  3
   4373   4372   4375   4377     1  0.0000000  0.6508444  3
   4373   4372   4369   4399     1  0.0000000  1.0460000  1
   4373   4372   4369   4399     1  0.0000000  0.0000000  3
   4374   4372   4375   4378     1  0.0000000  0.6508444  3
   4374   4372   4375   4376     1  0.0000000  0.6508444  3
   4374   4372   4375   4377     1  0.0000000  0.6508444  3
   4374   4372   4369   4399     1  0.0000000  1.0460000  1
   4374   4372   4369   4399     1  0.0000000  0.0000000  3
   4375   4378   4379   4380     1  0.0000000  1.2552000  3
   4375   4378   4379   4381     1  0.0000000  1.2552000  3
   4375   4378   4389   4390     1  0.0000000  1.2552000  3
   4375   4378   4389   4391     1  0.0000000  1.2552000  3
   4376   4375   4378   4379     1  0.0000000  1.2552000  3
   4376   4375   4378   4389     1  0.0000000  1.2552000  3
   4377   4375   4378   4379     1  0.0000000  1.2552000  3
   4377   4375   4378   4389     1  0.0000000  1.2552000  3
   4378   4379   4382   4383     1  0.0000000  0.6508444  3
   4378   4379   4382   4384     1  0.0000000  0.6508444  3
   4378   4389   4392   4393     1  0.0000000  0.6508444  3
   4378   4389   4392   4394     1  0.0000000  0.6508444  3
   4379   4378   4389   4390     1  0.0000000  1.2552000  3
   4379   4378   4389   4391     1  0.0000000  1.2552000  3
   4380   4379   4382   4385     1  0.0000000  0.6508444  3
   4380   4379   4382   4383     1  0.0000000  0.6508444  3
   4380   4379   4382   4384     1  0.0000000  0.6508444  3
   4380   4379   4378   4389     1  0.0000000  1.2552000  3
   4381   4379   4382   4385     1  0.0000000  0.6508444  3
   4381   4379   4382   4383     1  0.0000000  0.6508444  3
   4381   4379   4382   4384     1  0.0000000  0.6508444  3
   4381   4379   4378   4389     1  0.0000000  1.2552000  3
   4382   4385   4387   4388     1  180.0000771  9.6232000  2
   4383   4382   4385   4386     1  0.0000000  3.3472000  1
   4383   4382   4385   4386     1  0.0000000  0.0000000  2
   4383   4382   4385   4386     1  180.0000771  0.3347200  3
   4383   4382   4385   4387     1  180.0000771  0.0000000  2
   4384   4382   4385   4386     1  0.0000000  3.3472000  1
   4384   4382   4385   4386     1  0.0000000  0.0000000  2
   4384   4382   4385   4386     1  180.0000771  0.3347200  3
   4384   4382   4385   4387     1  180.0000771  0.0000000  2
   4386   4385   4387   4388     1  0.0000000  7.9496000  1
   4386   4385   4387   4388     1  180.0000771  9.6232000  2
   4390   4389   4392   4395     1  0.0000000  0.6508444  3
   4390   4389   4392   4393     1  0.0000000  0.6508444  3
   4390   4389   4392   4394     1  0.0000000  0.6508444  3
   4391   4389   4392   4395     1  0.0000000  0.6508444  3
   4391   4389   4392   4393     1  0.0000000  0.6508444  3
   4391   4389   4392   4394     1  0.0000000  0.6508444  3
   4392   4395   4397   4398     1  180.0000771  9.6232000  2
   4393   4392   4395   4396     1  0.0000000  3.3472000  1
   4393   4392   4395   4396     1  0.0000000  0.0000000  2
   4393   4392   4395   4396     1  180.0000771  0.3347200  3
   4393   4392   4395   4397     1  180.0000771  0.0000000  2
   4394   4392   4395   4396     1  0.0000000  3.3472000  1
   4394   4392   4395   4396     1  0.0000000  0.0000000  2
   4394   4392   4395   4396     1  180.0000771  0.3347200  3
   4394   4392   4395   4397     1  180.0000771  0.0000000  2
   4396   4395   4397   4398     1  0.0000000  7.9496000  1
   4396   4395   4397   4398     1  180.0000771  9.6232000  2
   4400   4403   4406   4407     1  0.0000000  0.6508444  3
   4400   4403   4406   4408     1  0.0000000  0.6508444  3
   4401   4400   4403   4406     1  0.0000000  0.6508444  3
   4401   4400   4403   4404     1  0.0000000  0.6508444  3
   4401   4400   4403   4405     1  0.0000000  0.6508444  3
   4402   4400   4403   4406     1  0.0000000  0.6508444  3
   4402   4400   4403   4404     1  0.0000000  0.6508444  3
   4402   4400   4403   4405     1  0.0000000  0.6508444  3
   4404   4403   4400   4430     1  0.0000000  1.0460000  1
   4404   4403   4400   4430     1  0.0000000  0.0000000  3
   4404   4403   4406   4409     1  0.0000000  0.6508444  3
   4404   4403   4406   4407     1  0.0000000  0.6508444  3
   4404   4403   4406   4408     1  0.0000000  0.6508444  3
   4405   4403   4400   4430     1  0.0000000  1.0460000  1
   4405   4403   4400   4430     1  0.0000000  0.0000000  3
   4405   4403   4406   4409     1  0.0000000  0.6508444  3
   4405   4403   4406   4407     1  0.0000000  0.6508444  3
   4405   4403   4406   4408     1  0.0000000  0.6508444  3
   4406   4409   4410   4411     1  0.0000000  1.2552000  3
   4406   4409   4410   4412     1  0.0000000  1.2552000  3
   4406   4409   4420   4421     1  0.0000000  1.2552000  3
   4406   4409   4420   4422     1  0.0000000  1.2552000  3
   4407   4406   4409   4410     1  0.0000000  1.2552000  3
   4407   4406   4409   4420     1  0.0000000  1.2552000  3
   4408   4406   4409   4410     1  0.0000000  1.2552000  3
   4408   4406   4409   4420     1  0.0000000  1.2552000  3
   4409   4410   4413   4414     1  0.0000000  0.6508444  3
   4409   4410   4413   4415     1  0.0000000  0.6508444  3
   4409   4420   4423   4424     1  0.0000000  0.6508444  3
   4409   4420   4423   4425     1  0.0000000  0.6508444  3
   4410   4409   4420   4421     1  0.0000000  1.2552000  3
   4410   4409   4420   4422     1  0.0000000  1.2552000  3
   4411   4410   4409   4420     1  0.0000000  1.2552000  3
   4411   4410   4413   4416     1  0.0000000  0.6508444  3
   4411   4410   4413   4414     1  0.0000000  0.6508444  3
   4411   4410   4413   4415     1  0.0000000  0.6508444  3
   4412   4410   4409   4420     1  0.0000000  1.2552000  3
   4412   4410   4413   4416     1  0.0000000  0.6508444  3
   4412   4410   4413   4414     1  0.0000000  0.6508444  3
   4412   4410   4413   4415     1  0.0000000  0.6508444  3
   4413   4416   4418   4419     1  180.0000771  9.6232000  2
   4414   4413   4416   4417     1  0.0000000  3.3472000  1
   4414   4413   4416   4417     1  0.0000000  0.0000000  2
   4414   4413   4416   4417     1  180.0000771  0.3347200  3
   4414   4413   4416   4418     1  180.0000771  0.0000000  2
   4415   4413   4416   4417     1  0.0000000  3.3472000  1
   4415   4413   4416   4417     1  0.0000000  0.0000000  2
   4415   4413   4416   4417     1  180.0000771  0.3347200  3
   4415   4413   4416   4418     1  180.0000771  0.0000000  2
   4417   4416   4418   4419     1  0.0000000  7.9496000  1
   4417   4416   4418   4419     1  180.0000771  9.6232000  2
   4421   4420   4423   4426     1  0.0000000  0.6508444  3
   4421   4420   4423   4424     1  0.0000000  0.6508444  3
   4421   4420   4423   4425     1  0.0000000  0.6508444  3
   4422   4420   4423   4426     1  0.0000000  0.6508444  3
   4422   4420   4423   4424     1  0.0000000  0.6508444  3
   4422   4420   4423   4425     1  0.0000000  0.6508444  3
   4423   4426   4428   4429     1  180.0000771  9.6232000  2
   4424   4423   4426   4427     1  0.0000000  3.3472000  1
   4424   4423   4426   4427     1  0.0000000  0.0000000  2
   4424   4423   4426   4427     1  180.0000771  0.3347200  3
   4424   4423   4426   4428     1  180.0000771  0.0000000  2
   4425   4423   4426   4427     1  0.0000000  3.3472000  1
   4425   4423   4426   4427     1  0.0000000  0.0000000  2
   4425   4423   4426   4427     1  180.0000771  0.3347200  3
   4425   4423   4426   4428     1  180.0000771  0.0000000  2
   4427   4426   4428   4429     1  0.0000000  7.9496000  1
   4427   4426   4428   4429     1  180.0000771  9.6232000  2
   4431   4434   4437   4438     1  0.0000000  0.6508444  3
   4431   4434   4437   4439     1  0.0000000  0.6508444  3
   4432   4431   4434   4437     1  0.0000000  0.6508444  3
   4432   4431   4434   4435     1  0.0000000  0.6508444  3
   4432   4431   4434   4436     1  0.0000000  0.6508444  3
   4433   4431   4434   4437     1  0.0000000  0.6508444  3
   4433   4431   4434   4435     1  0.0000000  0.6508444  3
   4433   4431   4434   4436     1  0.0000000  0.6508444  3
   4435   4434   4437   4440     1  0.0000000  0.6508444  3
   4435   4434   4437   4438     1  0.0000000  0.6508444  3
   4435   4434   4437   4439     1  0.0000000  0.6508444  3
   4435   4434   4431   4461     1  0.0000000  1.0460000  1
   4435   4434   4431   4461     1  0.0000000  0.0000000  3
   4436   4434   4437   4440     1  0.0000000  0.6508444  3
   4436   4434   4437   4438     1  0.0000000  0.6508444  3
   4436   4434   4437   4439     1  0.0000000  0.6508444  3
   4436   4434   4431   4461     1  0.0000000  1.0460000  1
   4436   4434   4431   4461     1  0.0000000  0.0000000  3
   4437   4440   4441   4442     1  0.0000000  1.2552000  3
   4437   4440   4441   4443     1  0.0000000  1.2552000  3
   4437   4440   4451   4452     1  0.0000000  1.2552000  3
   4437   4440   4451   4453     1  0.0000000  1.2552000  3
   4438   4437   4440   4441     1  0.0000000  1.2552000  3
   4438   4437   4440   4451     1  0.0000000  1.2552000  3
   4439   4437   4440   4441     1  0.0000000  1.2552000  3
   4439   4437   4440   4451     1  0.0000000  1.2552000  3
   4440   4441   4444   4445     1  0.0000000  0.6508444  3
   4440   4441   4444   4446     1  0.0000000  0.6508444  3
   4440   4451   4454   4455     1  0.0000000  0.6508444  3
   4440   4451   4454   4456     1  0.0000000  0.6508444  3
   4441   4440   4451   4452     1  0.0000000  1.2552000  3
   4441   4440   4451   4453     1  0.0000000  1.2552000  3
   4442   4441   4444   4447     1  0.0000000  0.6508444  3
   4442   4441   4444   4445     1  0.0000000  0.6508444  3
   4442   4441   4444   4446     1  0.0000000  0.6508444  3
   4442   4441   4440   4451     1  0.0000000  1.2552000  3
   4443   4441   4444   4447     1  0.0000000  0.6508444  3
   4443   4441   4444   4445     1  0.0000000  0.6508444  3
   4443   4441   4444   4446     1  0.0000000  0.6508444  3
   4443   4441   4440   4451     1  0.0000000  1.2552000  3
   4444   4447   4449   4450     1  180.0000771  9.6232000  2
   4445   4444   4447   4448     1  0.0000000  3.3472000  1
   4445   4444   4447   4448     1  0.0000000  0.0000000  2
   4445   4444   4447   4448     1  180.0000771  0.3347200  3
   4445   4444   4447   4449     1  180.0000771  0.0000000  2
   4446   4444   4447   4448     1  0.0000000  3.3472000  1
   4446   4444   4447   4448     1  0.0000000  0.0000000  2
   4446   4444   4447   4448     1  180.0000771  0.3347200  3
   4446   4444   4447   4449     1  180.0000771  0.0000000  2
   4448   4447   4449   4450     1  0.0000000  7.9496000  1
   4448   4447   4449   4450     1  180.0000771  9.6232000  2
   4452   4451   4454   4457     1  0.0000000  0.6508444  3
   4452   4451   4454   4455     1  0.0000000  0.6508444  3
   4452   4451   4454   4456     1  0.0000000  0.6508444  3
   4453   4451   4454   4457     1  0.0000000  0.6508444  3
   4453   4451   4454   4455     1  0.0000000  0.6508444  3
   4453   4451   4454   4456     1  0.0000000  0.6508444  3
   4454   4457   4459   4460     1  180.0000771  9.6232000  2
   4455   4454   4457   4458     1  0.0000000  3.3472000  1
   4455   4454   4457   4458     1  0.0000000  0.0000000  2
   4455   4454   4457   4458     1  180.0000771  0.3347200  3
   4455   4454   4457   4459     1  180.0000771  0.0000000  2
   4456   4454   4457   4458     1  0.0000000  3.3472000  1
   4456   4454   4457   4458     1  0.0000000  0.0000000  2
   4456   4454   4457   4458     1  180.0000771  0.3347200  3
   4456   4454   4457   4459     1  180.0000771  0.0000000  2
   4458   4457   4459   4460     1  0.0000000  7.9496000  1
   4458   4457   4459   4460     1  180.0000771  9.6232000  2
   4462   4465   4468   4469     1  0.0000000  0.6508444  3
   4462   4465   4468   4470     1  0.0000000  0.6508444  3
   4463   4462   4465   4468     1  0.0000000  0.6508444  3
   4463   4462   4465   4466     1  0.0000000  0.6508444  3
   4463   4462   4465   4467     1  0.0000000  0.6508444  3
   4464   4462   4465   4468     1  0.0000000  0.6508444  3
   4464   4462   4465   4466     1  0.0000000  0.6508444  3
   4464   4462   4465   4467     1  0.0000000  0.6508444  3
   4466   4465   4462   4492     1  0.0000000  1.0460000  1
   4466   4465   4462   4492     1  0.0000000  0.0000000  3
   4466   4465   4468   4471     1  0.0000000  0.6508444  3
   4466   4465   4468   4469     1  0.0000000  0.6508444  3
   4466   4465   4468   4470     1  0.0000000  0.6508444  3
   4467   4465   4462   4492     1  0.0000000  1.0460000  1
   4467   4465   4462   4492     1  0.0000000  0.0000000  3
   4467   4465   4468   4471     1  0.0000000  0.6508444  3
   4467   4465   4468   4469     1  0.0000000  0.6508444  3
   4467   4465   4468   4470     1  0.0000000  0.6508444  3
   4468   4471   4472   4473     1  0.0000000  1.2552000  3
   4468   4471   4472   4474     1  0.0000000  1.2552000  3
   4468   4471   4482   4483     1  0.0000000  1.2552000  3
   4468   4471   4482   4484     1  0.0000000  1.2552000  3
   4469   4468   4471   4472     1  0.0000000  1.2552000  3
   4469   4468   4471   4482     1  0.0000000  1.2552000  3
   4470   4468   4471   4472     1  0.0000000  1.2552000  3
   4470   4468   4471   4482     1  0.0000000  1.2552000  3
   4471   4472   4475   4476     1  0.0000000  0.6508444  3
   4471   4472   4475   4477     1  0.0000000  0.6508444  3
   4471   4482   4485   4486     1  0.0000000  0.6508444  3
   4471   4482   4485   4487     1  0.0000000  0.6508444  3
   4472   4471   4482   4483     1  0.0000000  1.2552000  3
   4472   4471   4482   4484     1  0.0000000  1.2552000  3
   4473   4472   4471   4482     1  0.0000000  1.2552000  3
   4473   4472   4475   4478     1  0.0000000  0.6508444  3
   4473   4472   4475   4476     1  0.0000000  0.6508444  3
   4473   4472   4475   4477     1  0.0000000  0.6508444  3
   4474   4472   4471   4482     1  0.0000000  1.2552000  3
   4474   4472   4475   4478     1  0.0000000  0.6508444  3
   4474   4472   4475   4476     1  0.0000000  0.6508444  3
   4474   4472   4475   4477     1  0.0000000  0.6508444  3
   4475   4478   4480   4481     1  180.0000771  9.6232000  2
   4476   4475   4478   4479     1  0.0000000  3.3472000  1
   4476   4475   4478   4479     1  0.0000000  0.0000000  2
   4476   4475   4478   4479     1  180.0000771  0.3347200  3
   4476   4475   4478   4480     1  180.0000771  0.0000000  2
   4477   4475   4478   4479     1  0.0000000  3.3472000  1
   4477   4475   4478   4479     1  0.0000000  0.0000000  2
   4477   4475   4478   4479     1  180.0000771  0.3347200  3
   4477   4475   4478   4480     1  180.0000771  0.0000000  2
   4479   4478   4480   4481     1  0.0000000  7.9496000  1
   4479   4478   4480   4481     1  180.0000771  9.6232000  2
   4483   4482   4485   4488     1  0.0000000  0.6508444  3
   4483   4482   4485   4486     1  0.0000000  0.6508444  3
   4483   4482   4485   4487     1  0.0000000  0.6508444  3
   4484   4482   4485   4488     1  0.0000000  0.6508444  3
   4484   4482   4485   4486     1  0.0000000  0.6508444  3
   4484   4482   4485   4487     1  0.0000000  0.6508444  3
   4485   4488   4490   4491     1  180.0000771  9.6232000  2
   4486   4485   4488   4489     1  0.0000000  3.3472000  1
   4486   4485   4488   4489     1  0.0000000  0.0000000  2
   4486   4485   4488   4489     1  180.0000771  0.3347200  3
   4486   4485   4488   4490     1  180.0000771  0.0000000  2
   4487   4485   4488   4489     1  0.0000000  3.3472000  1
   4487   4485   4488   4489     1  0.0000000  0.0000000  2
   4487   4485   4488   4489     1  180.0000771  0.3347200  3
   4487   4485   4488   4490     1  180.0000771  0.0000000  2
   4489   4488   4490   4491     1  0.0000000  7.9496000  1
   4489   4488   4490   4491     1  180.0000771  9.6232000  2
   4493   4496   4499   4500     1  0.0000000  0.6508444  3
   4493   4496   4499   4501     1  0.0000000  0.6508444  3
   4494   4493   4496   4499     1  0.0000000  0.6508444  3
   4494   4493   4496   4497     1  0.0000000  0.6508444  3
   4494   4493   4496   4498     1  0.0000000  0.6508444  3
   4495   4493   4496   4499     1  0.0000000  0.6508444  3
   4495   4493   4496   4497     1  0.0000000  0.6508444  3
   4495   4493   4496   4498     1  0.0000000  0.6508444  3
   4497   4496   4499   4502     1  0.0000000  0.6508444  3
   4497   4496   4499   4500     1  0.0000000  0.6508444  3
   4497   4496   4499   4501     1  0.0000000  0.6508444  3
   4497   4496   4493   4523     1  0.0000000  1.0460000  1
   4497   4496   4493   4523     1  0.0000000  0.0000000  3
   4498   4496   4499   4502     1  0.0000000  0.6508444  3
   4498   4496   4499   4500     1  0.0000000  0.6508444  3
   4498   4496   4499   4501     1  0.0000000  0.6508444  3
   4498   4496   4493   4523     1  0.0000000  1.0460000  1
   4498   4496   4493   4523     1  0.0000000  0.0000000  3
   4499   4502   4503   4504     1  0.0000000  1.2552000  3
   4499   4502   4503   4505     1  0.0000000  1.2552000  3
   4499   4502   4513   4514     1  0.0000000  1.2552000  3
   4499   4502   4513   4515     1  0.0000000  1.2552000  3
   4500   4499   4502   4503     1  0.0000000  1.2552000  3
   4500   4499   4502   4513     1  0.0000000  1.2552000  3
   4501   4499   4502   4503     1  0.0000000  1.2552000  3
   4501   4499   4502   4513     1  0.0000000  1.2552000  3
   4502   4503   4506   4507     1  0.0000000  0.6508444  3
   4502   4503   4506   4508     1  0.0000000  0.6508444  3
   4502   4513   4516   4517     1  0.0000000  0.6508444  3
   4502   4513   4516   4518     1  0.0000000  0.6508444  3
   4503   4502   4513   4514     1  0.0000000  1.2552000  3
   4503   4502   4513   4515     1  0.0000000  1.2552000  3
   4504   4503   4506   4509     1  0.0000000  0.6508444  3
   4504   4503   4506   4507     1  0.0000000  0.6508444  3
   4504   4503   4506   4508     1  0.0000000  0.6508444  3
   4504   4503   4502   4513     1  0.0000000  1.2552000  3
   4505   4503   4506   4509     1  0.0000000  0.6508444  3
   4505   4503   4506   4507     1  0.0000000  0.6508444  3
   4505   4503   4506   4508     1  0.0000000  0.6508444  3
   4505   4503   4502   4513     1  0.0000000  1.2552000  3
   4506   4509   4511   4512     1  180.0000771  9.6232000  2
   4507   4506   4509   4510     1  0.0000000  3.3472000  1
   4507   4506   4509   4510     1  0.0000000  0.0000000  2
   4507   4506   4509   4510     1  180.0000771  0.3347200  3
   4507   4506   4509   4511     1  180.0000771  0.0000000  2
   4508   4506   4509   4510     1  0.0000000  3.3472000  1
   4508   4506   4509   4510     1  0.0000000  0.0000000  2
   4508   4506   4509   4510     1  180.0000771  0.3347200  3
   4508   4506   4509   4511     1  180.0000771  0.0000000  2
   4510   4509   4511   4512     1  0.0000000  7.9496000  1
   4510   4509   4511   4512     1  180.0000771  9.6232000  2
   4514   4513   4516   4519     1  0.0000000  0.6508444  3
   4514   4513   4516   4517     1  0.0000000  0.6508444  3
   4514   4513   4516   4518     1  0.0000000  0.6508444  3
   4515   4513   4516   4519     1  0.0000000  0.6508444  3
   4515   4513   4516   4517     1  0.0000000  0.6508444  3
   4515   4513   4516   4518     1  0.0000000  0.6508444  3
   4516   4519   4521   4522     1  180.0000771  9.6232000  2
   4517   4516   4519   4520     1  0.0000000  3.3472000  1
   4517   4516   4519   4520     1  0.0000000  0.0000000  2
   4517   4516   4519   4520     1  180.0000771  0.3347200  3
   4517   4516   4519   4521     1  180.0000771  0.0000000  2
   4518   4516   4519   4520     1  0.0000000  3.3472000  1
   4518   4516   4519   4520     1  0.0000000  0.0000000  2
   4518   4516   4519   4520     1  180.0000771  0.3347200  3
   4518   4516   4519   4521     1  180.0000771  0.0000000  2
   4520   4519   4521   4522     1  0.0000000  7.9496000  1
   4520   4519   4521   4522     1  180.0000771  9.6232000  2
   4524   4527   4530   4531     1  0.0000000  0.6508444  3
   4524   4527   4530   4532     1  0.0000000  0.6508444  3
   4525   4524   4527   4530     1  0.0000000  0.6508444  3
   4525   4524   4527   4528     1  0.0000000  0.6508444  3
   4525   4524   4527   4529     1  0.0000000  0.6508444  3
   4526   4524   4527   4530     1  0.0000000  0.6508444  3
   4526   4524   4527   4528     1  0.0000000  0.6508444  3
   4526   4524   4527   4529     1  0.0000000  0.6508444  3
   4528   4527   4524   4554     1  0.0000000  1.0460000  1
   4528   4527   4524   4554     1  0.0000000  0.0000000  3
   4528   4527   4530   4533     1  0.0000000  0.6508444  3
   4528   4527   4530   4531     1  0.0000000  0.6508444  3
   4528   4527   4530   4532     1  0.0000000  0.6508444  3
   4529   4527   4524   4554     1  0.0000000  1.0460000  1
   4529   4527   4524   4554     1  0.0000000  0.0000000  3
   4529   4527   4530   4533     1  0.0000000  0.6508444  3
   4529   4527   4530   4531     1  0.0000000  0.6508444  3
   4529   4527   4530   4532     1  0.0000000  0.6508444  3
   4530   4533   4534   4535     1  0.0000000  1.2552000  3
   4530   4533   4534   4536     1  0.0000000  1.2552000  3
   4530   4533   4544   4545     1  0.0000000  1.2552000  3
   4530   4533   4544   4546     1  0.0000000  1.2552000  3
   4531   4530   4533   4534     1  0.0000000  1.2552000  3
   4531   4530   4533   4544     1  0.0000000  1.2552000  3
   4532   4530   4533   4534     1  0.0000000  1.2552000  3
   4532   4530   4533   4544     1  0.0000000  1.2552000  3
   4533   4534   4537   4538     1  0.0000000  0.6508444  3
   4533   4534   4537   4539     1  0.0000000  0.6508444  3
   4533   4544   4547   4548     1  0.0000000  0.6508444  3
   4533   4544   4547   4549     1  0.0000000  0.6508444  3
   4534   4533   4544   4545     1  0.0000000  1.2552000  3
   4534   4533   4544   4546     1  0.0000000  1.2552000  3
   4535   4534   4533   4544     1  0.0000000  1.2552000  3
   4535   4534   4537   4540     1  0.0000000  0.6508444  3
   4535   4534   4537   4538     1  0.0000000  0.6508444  3
   4535   4534   4537   4539     1  0.0000000  0.6508444  3
   4536   4534   4533   4544     1  0.0000000  1.2552000  3
   4536   4534   4537   4540     1  0.0000000  0.6508444  3
   4536   4534   4537   4538     1  0.0000000  0.6508444  3
   4536   4534   4537   4539     1  0.0000000  0.6508444  3
   4537   4540   4542   4543     1  180.0000771  9.6232000  2
   4538   4537   4540   4541     1  0.0000000  3.3472000  1
   4538   4537   4540   4541     1  0.0000000  0.0000000  2
   4538   4537   4540   4541     1  180.0000771  0.3347200  3
   4538   4537   4540   4542     1  180.0000771  0.0000000  2
   4539   4537   4540   4541     1  0.0000000  3.3472000  1
   4539   4537   4540   4541     1  0.0000000  0.0000000  2
   4539   4537   4540   4541     1  180.0000771  0.3347200  3
   4539   4537   4540   4542     1  180.0000771  0.0000000  2
   4541   4540   4542   4543     1  0.0000000  7.9496000  1
   4541   4540   4542   4543     1  180.0000771  9.6232000  2
   4545   4544   4547   4550     1  0.0000000  0.6508444  3
   4545   4544   4547   4548     1  0.0000000  0.6508444  3
   4545   4544   4547   4549     1  0.0000000  0.6508444  3
   4546   4544   4547   4550     1  0.0000000  0.6508444  3
   4546   4544   4547   4548     1  0.0000000  0.6508444  3
   4546   4544   4547   4549     1  0.0000000  0.6508444  3
   4547   4550   4552   4553     1  180.0000771  9.6232000  2
   4548   4547   4550   4551     1  0.0000000  3.3472000  1
   4548   4547   4550   4551     1  0.0000000  0.0000000  2
   4548   4547   4550   4551     1  180.0000771  0.3347200  3
   4548   4547   4550   4552     1  180.0000771  0.0000000  2
   4549   4547   4550   4551     1  0.0000000  3.3472000  1
   4549   4547   4550   4551     1  0.0000000  0.0000000  2
   4549   4547   4550   4551     1  180.0000771  0.3347200  3
   4549   4547   4550   4552     1  180.0000771  0.0000000  2
   4551   4550   4552   4553     1  0.0000000  7.9496000  1
   4551   4550   4552   4553     1  180.0000771  9.6232000  2
   4555   4558   4561   4562     1  0.0000000  0.6508444  3
   4555   4558   4561   4563     1  0.0000000  0.6508444  3
   4556   4555   4558   4561     1  0.0000000  0.6508444  3
   4556   4555   4558   4559     1  0.0000000  0.6508444  3
   4556   4555   4558   4560     1  0.0000000  0.6508444  3
   4557   4555   4558   4561     1  0.0000000  0.6508444  3
   4557   4555   4558   4559     1  0.0000000  0.6508444  3
   4557   4555   4558   4560     1  0.0000000  0.6508444  3
   4559   4558   4561   4564     1  0.0000000  0.6508444  3
   4559   4558   4561   4562     1  0.0000000  0.6508444  3
   4559   4558   4561   4563     1  0.0000000  0.6508444  3
   4559   4558   4555   4585     1  0.0000000  1.0460000  1
   4559   4558   4555   4585     1  0.0000000  0.0000000  3
   4560   4558   4561   4564     1  0.0000000  0.6508444  3
   4560   4558   4561   4562     1  0.0000000  0.6508444  3
   4560   4558   4561   4563     1  0.0000000  0.6508444  3
   4560   4558   4555   4585     1  0.0000000  1.0460000  1
   4560   4558   4555   4585     1  0.0000000  0.0000000  3
   4561   4564   4565   4566     1  0.0000000  1.2552000  3
   4561   4564   4565   4567     1  0.0000000  1.2552000  3
   4561   4564   4575   4576     1  0.0000000  1.2552000  3
   4561   4564   4575   4577     1  0.0000000  1.2552000  3
   4562   4561   4564   4565     1  0.0000000  1.2552000  3
   4562   4561   4564   4575     1  0.0000000  1.2552000  3
   4563   4561   4564   4565     1  0.0000000  1.2552000  3
   4563   4561   4564   4575     1  0.0000000  1.2552000  3
   4564   4565   4568   4569     1  0.0000000  0.6508444  3
   4564   4565   4568   4570     1  0.0000000  0.6508444  3
   4564   4575   4578   4579     1  0.0000000  0.6508444  3
   4564   4575   4578   4580     1  0.0000000  0.6508444  3
   4565   4564   4575   4576     1  0.0000000  1.2552000  3
   4565   4564   4575   4577     1  0.0000000  1.2552000  3
   4566   4565   4568   4571     1  0.0000000  0.6508444  3
   4566   4565   4568   4569     1  0.0000000  0.6508444  3
   4566   4565   4568   4570     1  0.0000000  0.6508444  3
   4566   4565   4564   4575     1  0.0000000  1.2552000  3
   4567   4565   4568   4571     1  0.0000000  0.6508444  3
   4567   4565   4568   4569     1  0.0000000  0.6508444  3
   4567   4565   4568   4570     1  0.0000000  0.6508444  3
   4567   4565   4564   4575     1  0.0000000  1.2552000  3
   4568   4571   4573   4574     1  180.0000771  9.6232000  2
   4569   4568   4571   4572     1  0.0000000  3.3472000  1
   4569   4568   4571   4572     1  0.0000000  0.0000000  2
   4569   4568   4571   4572     1  180.0000771  0.3347200  3
   4569   4568   4571   4573     1  180.0000771  0.0000000  2
   4570   4568   4571   4572     1  0.0000000  3.3472000  1
   4570   4568   4571   4572     1  0.0000000  0.0000000  2
   4570   4568   4571   4572     1  180.0000771  0.3347200  3
   4570   4568   4571   4573     1  180.0000771  0.0000000  2
   4572   4571   4573   4574     1  0.0000000  7.9496000  1
   4572   4571   4573   4574     1  180.0000771  9.6232000  2
   4576   4575   4578   4581     1  0.0000000  0.6508444  3
   4576   4575   4578   4579     1  0.0000000  0.6508444  3
   4576   4575   4578   4580     1  0.0000000  0.6508444  3
   4577   4575   4578   4581     1  0.0000000  0.6508444  3
   4577   4575   4578   4579     1  0.0000000  0.6508444  3
   4577   4575   4578   4580     1  0.0000000  0.6508444  3
   4578   4581   4583   4584     1  180.0000771  9.6232000  2
   4579   4578   4581   4582     1  0.0000000  3.3472000  1
   4579   4578   4581   4582     1  0.0000000  0.0000000  2
   4579   4578   4581   4582     1  180.0000771  0.3347200  3
   4579   4578   4581   4583     1  180.0000771  0.0000000  2
   4580   4578   4581   4582     1  0.0000000  3.3472000  1
   4580   4578   4581   4582     1  0.0000000  0.0000000  2
   4580   4578   4581   4582     1  180.0000771  0.3347200  3
   4580   4578   4581   4583     1  180.0000771  0.0000000  2
   4582   4581   4583   4584     1  0.0000000  7.9496000  1
   4582   4581   4583   4584     1  180.0000771  9.6232000  2
   4586   4589   4592   4593     1  0.0000000  0.6508444  3
   4586   4589   4592   4594     1  0.0000000  0.6508444  3
   4587   4586   4589   4592     1  0.0000000  0.6508444  3
   4587   4586   4589   4590     1  0.0000000  0.6508444  3
   4587   4586   4589   4591     1  0.0000000  0.6508444  3
   4588   4586   4589   4592     1  0.0000000  0.6508444  3
   4588   4586   4589   4590     1  0.0000000  0.6508444  3
   4588   4586   4589   4591     1  0.0000000  0.6508444  3
   4590   4589   4586   4616     1  0.0000000  1.0460000  1
   4590   4589   4586   4616     1  0.0000000  0.0000000  3
   4590   4589   4592   4595     1  0.0000000  0.6508444  3
   4590   4589   4592   4593     1  0.0000000  0.6508444  3
   4590   4589   4592   4594     1  0.0000000  0.6508444  3
   4591   4589   4586   4616     1  0.0000000  1.0460000  1
   4591   4589   4586   4616     1  0.0000000  0.0000000  3
   4591   4589   4592   4595     1  0.0000000  0.6508444  3
   4591   4589   4592   4593     1  0.0000000  0.6508444  3
   4591   4589   4592   4594     1  0.0000000  0.6508444  3
   4592   4595   4596   4597     1  0.0000000  1.2552000  3
   4592   4595   4596   4598     1  0.0000000  1.2552000  3
   4592   4595   4606   4607     1  0.0000000  1.2552000  3
   4592   4595   4606   4608     1  0.0000000  1.2552000  3
   4593   4592   4595   4596     1  0.0000000  1.2552000  3
   4593   4592   4595   4606     1  0.0000000  1.2552000  3
   4594   4592   4595   4596     1  0.0000000  1.2552000  3
   4594   4592   4595   4606     1  0.0000000  1.2552000  3
   4595   4596   4599   4600     1  0.0000000  0.6508444  3
   4595   4596   4599   4601     1  0.0000000  0.6508444  3
   4595   4606   4609   4610     1  0.0000000  0.6508444  3
   4595   4606   4609   4611     1  0.0000000  0.6508444  3
   4596   4595   4606   4607     1  0.0000000  1.2552000  3
   4596   4595   4606   4608     1  0.0000000  1.2552000  3
   4597   4596   4595   4606     1  0.0000000  1.2552000  3
   4597   4596   4599   4602     1  0.0000000  0.6508444  3
   4597   4596   4599   4600     1  0.0000000  0.6508444  3
   4597   4596   4599   4601     1  0.0000000  0.6508444  3
   4598   4596   4595   4606     1  0.0000000  1.2552000  3
   4598   4596   4599   4602     1  0.0000000  0.6508444  3
   4598   4596   4599   4600     1  0.0000000  0.6508444  3
   4598   4596   4599   4601     1  0.0000000  0.6508444  3
   4599   4602   4604   4605     1  180.0000771  9.6232000  2
   4600   4599   4602   4603     1  0.0000000  3.3472000  1
   4600   4599   4602   4603     1  0.0000000  0.0000000  2
   4600   4599   4602   4603     1  180.0000771  0.3347200  3
   4600   4599   4602   4604     1  180.0000771  0.0000000  2
   4601   4599   4602   4603     1  0.0000000  3.3472000  1
   4601   4599   4602   4603     1  0.0000000  0.0000000  2
   4601   4599   4602   4603     1  180.0000771  0.3347200  3
   4601   4599   4602   4604     1  180.0000771  0.0000000  2
   4603   4602   4604   4605     1  0.0000000  7.9496000  1
   4603   4602   4604   4605     1  180.0000771  9.6232000  2
   4607   4606   4609   4612     1  0.0000000  0.6508444  3
   4607   4606   4609   4610     1  0.0000000  0.6508444  3
   4607   4606   4609   4611     1  0.0000000  0.6508444  3
   4608   4606   4609   4612     1  0.0000000  0.6508444  3
   4608   4606   4609   4610     1  0.0000000  0.6508444  3
   4608   4606   4609   4611     1  0.0000000  0.6508444  3
   4609   4612   4614   4615     1  180.0000771  9.6232000  2
   4610   4609   4612   4613     1  0.0000000  3.3472000  1
   4610   4609   4612   4613     1  0.0000000  0.0000000  2
   4610   4609   4612   4613     1  180.0000771  0.3347200  3
   4610   4609   4612   4614     1  180.0000771  0.0000000  2
   4611   4609   4612   4613     1  0.0000000  3.3472000  1
   4611   4609   4612   4613     1  0.0000000  0.0000000  2
   4611   4609   4612   4613     1  180.0000771  0.3347200  3
   4611   4609   4612   4614     1  180.0000771  0.0000000  2
   4613   4612   4614   4615     1  0.0000000  7.9496000  1
   4613   4612   4614   4615     1  180.0000771  9.6232000  2
   4617   4620   4623   4624     1  0.0000000  0.6508444  3
   4617   4620   4623   4625     1  0.0000000  0.6508444  3
   4618   4617   4620   4623     1  0.0000000  0.6508444  3
   4618   4617   4620   4621     1  0.0000000  0.6508444  3
   4618   4617   4620   4622     1  0.0000000  0.6508444  3
   4619   4617   4620   4623     1  0.0000000  0.6508444  3
   4619   4617   4620   4621     1  0.0000000  0.6508444  3
   4619   4617   4620   4622     1  0.0000000  0.6508444  3
   4621   4620   4623   4626     1  0.0000000  0.6508444  3
   4621   4620   4623   4624     1  0.0000000  0.6508444  3
   4621   4620   4623   4625     1  0.0000000  0.6508444  3
   4621   4620   4617   4647     1  0.0000000  1.0460000  1
   4621   4620   4617   4647     1  0.0000000  0.0000000  3
   4622   4620   4623   4626     1  0.0000000  0.6508444  3
   4622   4620   4623   4624     1  0.0000000  0.6508444  3
   4622   4620   4623   4625     1  0.0000000  0.6508444  3
   4622   4620   4617   4647     1  0.0000000  1.0460000  1
   4622   4620   4617   4647     1  0.0000000  0.0000000  3
   4623   4626   4627   4628     1  0.0000000  1.2552000  3
   4623   4626   4627   4629     1  0.0000000  1.2552000  3
   4623   4626   4637   4638     1  0.0000000  1.2552000  3
   4623   4626   4637   4639     1  0.0000000  1.2552000  3
   4624   4623   4626   4627     1  0.0000000  1.2552000  3
   4624   4623   4626   4637     1  0.0000000  1.2552000  3
   4625   4623   4626   4627     1  0.0000000  1.2552000  3
   4625   4623   4626   4637     1  0.0000000  1.2552000  3
   4626   4627   4630   4631     1  0.0000000  0.6508444  3
   4626   4627   4630   4632     1  0.0000000  0.6508444  3
   4626   4637   4640   4641     1  0.0000000  0.6508444  3
   4626   4637   4640   4642     1  0.0000000  0.6508444  3
   4627   4626   4637   4638     1  0.0000000  1.2552000  3
   4627   4626   4637   4639     1  0.0000000  1.2552000  3
   4628   4627   4630   4633     1  0.0000000  0.6508444  3
   4628   4627   4630   4631     1  0.0000000  0.6508444  3
   4628   4627   4630   4632     1  0.0000000  0.6508444  3
   4628   4627   4626   4637     1  0.0000000  1.2552000  3
   4629   4627   4630   4633     1  0.0000000  0.6508444  3
   4629   4627   4630   4631     1  0.0000000  0.6508444  3
   4629   4627   4630   4632     1  0.0000000  0.6508444  3
   4629   4627   4626   4637     1  0.0000000  1.2552000  3
   4630   4633   4635   4636     1  180.0000771  9.6232000  2
   4631   4630   4633   4634     1  0.0000000  3.3472000  1
   4631   4630   4633   4634     1  0.0000000  0.0000000  2
   4631   4630   4633   4634     1  180.0000771  0.3347200  3
   4631   4630   4633   4635     1  180.0000771  0.0000000  2
   4632   4630   4633   4634     1  0.0000000  3.3472000  1
   4632   4630   4633   4634     1  0.0000000  0.0000000  2
   4632   4630   4633   4634     1  180.0000771  0.3347200  3
   4632   4630   4633   4635     1  180.0000771  0.0000000  2
   4634   4633   4635   4636     1  0.0000000  7.9496000  1
   4634   4633   4635   4636     1  180.0000771  9.6232000  2
   4638   4637   4640   4643     1  0.0000000  0.6508444  3
   4638   4637   4640   4641     1  0.0000000  0.6508444  3
   4638   4637   4640   4642     1  0.0000000  0.6508444  3
   4639   4637   4640   4643     1  0.0000000  0.6508444  3
   4639   4637   4640   4641     1  0.0000000  0.6508444  3
   4639   4637   4640   4642     1  0.0000000  0.6508444  3
   4640   4643   4645   4646     1  180.0000771  9.6232000  2
   4641   4640   4643   4644     1  0.0000000  3.3472000  1
   4641   4640   4643   4644     1  0.0000000  0.0000000  2
   4641   4640   4643   4644     1  180.0000771  0.3347200  3
   4641   4640   4643   4645     1  180.0000771  0.0000000  2
   4642   4640   4643   4644     1  0.0000000  3.3472000  1
   4642   4640   4643   4644     1  0.0000000  0.0000000  2
   4642   4640   4643   4644     1  180.0000771  0.3347200  3
   4642   4640   4643   4645     1  180.0000771  0.0000000  2
   4644   4643   4645   4646     1  0.0000000  7.9496000  1
   4644   4643   4645   4646     1  180.0000771  9.6232000  2
   4648   4651   4654   4655     1  0.0000000  0.6508444  3
   4648   4651   4654   4656     1  0.0000000  0.6508444  3
   4649   4648   4651   4654     1  0.0000000  0.6508444  3
   4649   4648   4651   4652     1  0.0000000  0.6508444  3
   4649   4648   4651   4653     1  0.0000000  0.6508444  3
   4650   4648   4651   4654     1  0.0000000  0.6508444  3
   4650   4648   4651   4652     1  0.0000000  0.6508444  3
   4650   4648   4651   4653     1  0.0000000  0.6508444  3
   4652   4651   4648   4678     1  0.0000000  1.0460000  1
   4652   4651   4648   4678     1  0.0000000  0.0000000  3
   4652   4651   4654   4657     1  0.0000000  0.6508444  3
   4652   4651   4654   4655     1  0.0000000  0.6508444  3
   4652   4651   4654   4656     1  0.0000000  0.6508444  3
   4653   4651   4648   4678     1  0.0000000  1.0460000  1
   4653   4651   4648   4678     1  0.0000000  0.0000000  3
   4653   4651   4654   4657     1  0.0000000  0.6508444  3
   4653   4651   4654   4655     1  0.0000000  0.6508444  3
   4653   4651   4654   4656     1  0.0000000  0.6508444  3
   4654   4657   4658   4659     1  0.0000000  1.2552000  3
   4654   4657   4658   4660     1  0.0000000  1.2552000  3
   4654   4657   4668   4669     1  0.0000000  1.2552000  3
   4654   4657   4668   4670     1  0.0000000  1.2552000  3
   4655   4654   4657   4658     1  0.0000000  1.2552000  3
   4655   4654   4657   4668     1  0.0000000  1.2552000  3
   4656   4654   4657   4658     1  0.0000000  1.2552000  3
   4656   4654   4657   4668     1  0.0000000  1.2552000  3
   4657   4658   4661   4662     1  0.0000000  0.6508444  3
   4657   4658   4661   4663     1  0.0000000  0.6508444  3
   4657   4668   4671   4672     1  0.0000000  0.6508444  3
   4657   4668   4671   4673     1  0.0000000  0.6508444  3
   4658   4657   4668   4669     1  0.0000000  1.2552000  3
   4658   4657   4668   4670     1  0.0000000  1.2552000  3
   4659   4658   4657   4668     1  0.0000000  1.2552000  3
   4659   4658   4661   4664     1  0.0000000  0.6508444  3
   4659   4658   4661   4662     1  0.0000000  0.6508444  3
   4659   4658   4661   4663     1  0.0000000  0.6508444  3
   4660   4658   4657   4668     1  0.0000000  1.2552000  3
   4660   4658   4661   4664     1  0.0000000  0.6508444  3
   4660   4658   4661   4662     1  0.0000000  0.6508444  3
   4660   4658   4661   4663     1  0.0000000  0.6508444  3
   4661   4664   4666   4667     1  180.0000771  9.6232000  2
   4662   4661   4664   4665     1  0.0000000  3.3472000  1
   4662   4661   4664   4665     1  0.0000000  0.0000000  2
   4662   4661   4664   4665     1  180.0000771  0.3347200  3
   4662   4661   4664   4666     1  180.0000771  0.0000000  2
   4663   4661   4664   4665     1  0.0000000  3.3472000  1
   4663   4661   4664   4665     1  0.0000000  0.0000000  2
   4663   4661   4664   4665     1  180.0000771  0.3347200  3
   4663   4661   4664   4666     1  180.0000771  0.0000000  2
   4665   4664   4666   4667     1  0.0000000  7.9496000  1
   4665   4664   4666   4667     1  180.0000771  9.6232000  2
   4669   4668   4671   4674     1  0.0000000  0.6508444  3
   4669   4668   4671   4672     1  0.0000000  0.6508444  3
   4669   4668   4671   4673     1  0.0000000  0.6508444  3
   4670   4668   4671   4674     1  0.0000000  0.6508444  3
   4670   4668   4671   4672     1  0.0000000  0.6508444  3
   4670   4668   4671   4673     1  0.0000000  0.6508444  3
   4671   4674   4676   4677     1  180.0000771  9.6232000  2
   4672   4671   4674   4675     1  0.0000000  3.3472000  1
   4672   4671   4674   4675     1  0.0000000  0.0000000  2
   4672   4671   4674   4675     1  180.0000771  0.3347200  3
   4672   4671   4674   4676     1  180.0000771  0.0000000  2
   4673   4671   4674   4675     1  0.0000000  3.3472000  1
   4673   4671   4674   4675     1  0.0000000  0.0000000  2
   4673   4671   4674   4675     1  180.0000771  0.3347200  3
   4673   4671   4674   4676     1  180.0000771  0.0000000  2
   4675   4674   4676   4677     1  0.0000000  7.9496000  1
   4675   4674   4676   4677     1  180.0000771  9.6232000  2
   4679   4682   4685   4686     1  0.0000000  0.6508444  3
   4679   4682   4685   4687     1  0.0000000  0.6508444  3
   4680   4679   4682   4685     1  0.0000000  0.6508444  3
   4680   4679   4682   4683     1  0.0000000  0.6508444  3
   4680   4679   4682   4684     1  0.0000000  0.6508444  3
   4681   4679   4682   4685     1  0.0000000  0.6508444  3
   4681   4679   4682   4683     1  0.0000000  0.6508444  3
   4681   4679   4682   4684     1  0.0000000  0.6508444  3
   4683   4682   4685   4688     1  0.0000000  0.6508444  3
   4683   4682   4685   4686     1  0.0000000  0.6508444  3
   4683   4682   4685   4687     1  0.0000000  0.6508444  3
   4683   4682   4679   4709     1  0.0000000  1.0460000  1
   4683   4682   4679   4709     1  0.0000000  0.0000000  3
   4684   4682   4685   4688     1  0.0000000  0.6508444  3
   4684   4682   4685   4686     1  0.0000000  0.6508444  3
   4684   4682   4685   4687     1  0.0000000  0.6508444  3
   4684   4682   4679   4709     1  0.0000000  1.0460000  1
   4684   4682   4679   4709     1  0.0000000  0.0000000  3
   4685   4688   4689   4690     1  0.0000000  1.2552000  3
   4685   4688   4689   4691     1  0.0000000  1.2552000  3
   4685   4688   4699   4700     1  0.0000000  1.2552000  3
   4685   4688   4699   4701     1  0.0000000  1.2552000  3
   4686   4685   4688   4689     1  0.0000000  1.2552000  3
   4686   4685   4688   4699     1  0.0000000  1.2552000  3
   4687   4685   4688   4689     1  0.0000000  1.2552000  3
   4687   4685   4688   4699     1  0.0000000  1.2552000  3
   4688   4689   4692   4693     1  0.0000000  0.6508444  3
   4688   4689   4692   4694     1  0.0000000  0.6508444  3
   4688   4699   4702   4703     1  0.0000000  0.6508444  3
   4688   4699   4702   4704     1  0.0000000  0.6508444  3
   4689   4688   4699   4700     1  0.0000000  1.2552000  3
   4689   4688   4699   4701     1  0.0000000  1.2552000  3
   4690   4689   4692   4695     1  0.0000000  0.6508444  3
   4690   4689   4692   4693     1  0.0000000  0.6508444  3
   4690   4689   4692   4694     1  0.0000000  0.6508444  3
   4690   4689   4688   4699     1  0.0000000  1.2552000  3
   4691   4689   4692   4695     1  0.0000000  0.6508444  3
   4691   4689   4692   4693     1  0.0000000  0.6508444  3
   4691   4689   4692   4694     1  0.0000000  0.6508444  3
   4691   4689   4688   4699     1  0.0000000  1.2552000  3
   4692   4695   4697   4698     1  180.0000771  9.6232000  2
   4693   4692   4695   4696     1  0.0000000  3.3472000  1
   4693   4692   4695   4696     1  0.0000000  0.0000000  2
   4693   4692   4695   4696     1  180.0000771  0.3347200  3
   4693   4692   4695   4697     1  180.0000771  0.0000000  2
   4694   4692   4695   4696     1  0.0000000  3.3472000  1
   4694   4692   4695   4696     1  0.0000000  0.0000000  2
   4694   4692   4695   4696     1  180.0000771  0.3347200  3
   4694   4692   4695   4697     1  180.0000771  0.0000000  2
   4696   4695   4697   4698     1  0.0000000  7.9496000  1
   4696   4695   4697   4698     1  180.0000771  9.6232000  2
   4700   4699   4702   4705     1  0.0000000  0.6508444  3
   4700   4699   4702   4703     1  0.0000000  0.6508444  3
   4700   4699   4702   4704     1  0.0000000  0.6508444  3
   4701   4699   4702   4705     1  0.0000000  0.6508444  3
   4701   4699   4702   4703     1  0.0000000  0.6508444  3
   4701   4699   4702   4704     1  0.0000000  0.6508444  3
   4702   4705   4707   4708     1  180.0000771  9.6232000  2
   4703   4702   4705   4706     1  0.0000000  3.3472000  1
   4703   4702   4705   4706     1  0.0000000  0.0000000  2
   4703   4702   4705   4706     1  180.0000771  0.3347200  3
   4703   4702   4705   4707     1  180.0000771  0.0000000  2
   4704   4702   4705   4706     1  0.0000000  3.3472000  1
   4704   4702   4705   4706     1  0.0000000  0.0000000  2
   4704   4702   4705   4706     1  180.0000771  0.3347200  3
   4704   4702   4705   4707     1  180.0000771  0.0000000  2
   4706   4705   4707   4708     1  0.0000000  7.9496000  1
   4706   4705   4707   4708     1  180.0000771  9.6232000  2
   4710   4713   4716   4717     1  0.0000000  0.6508444  3
   4710   4713   4716   4718     1  0.0000000  0.6508444  3
   4711   4710   4713   4716     1  0.0000000  0.6508444  3
   4711   4710   4713   4714     1  0.0000000  0.6508444  3
   4711   4710   4713   4715     1  0.0000000  0.6508444  3
   4712   4710   4713   4716     1  0.0000000  0.6508444  3
   4712   4710   4713   4714     1  0.0000000  0.6508444  3
   4712   4710   4713   4715     1  0.0000000  0.6508444  3
   4714   4713   4710   4740     1  0.0000000  1.0460000  1
   4714   4713   4710   4740     1  0.0000000  0.0000000  3
   4714   4713   4716   4719     1  0.0000000  0.6508444  3
   4714   4713   4716   4717     1  0.0000000  0.6508444  3
   4714   4713   4716   4718     1  0.0000000  0.6508444  3
   4715   4713   4710   4740     1  0.0000000  1.0460000  1
   4715   4713   4710   4740     1  0.0000000  0.0000000  3
   4715   4713   4716   4719     1  0.0000000  0.6508444  3
   4715   4713   4716   4717     1  0.0000000  0.6508444  3
   4715   4713   4716   4718     1  0.0000000  0.6508444  3
   4716   4719   4720   4721     1  0.0000000  1.2552000  3
   4716   4719   4720   4722     1  0.0000000  1.2552000  3
   4716   4719   4730   4731     1  0.0000000  1.2552000  3
   4716   4719   4730   4732     1  0.0000000  1.2552000  3
   4717   4716   4719   4720     1  0.0000000  1.2552000  3
   4717   4716   4719   4730     1  0.0000000  1.2552000  3
   4718   4716   4719   4720     1  0.0000000  1.2552000  3
   4718   4716   4719   4730     1  0.0000000  1.2552000  3
   4719   4720   4723   4724     1  0.0000000  0.6508444  3
   4719   4720   4723   4725     1  0.0000000  0.6508444  3
   4719   4730   4733   4734     1  0.0000000  0.6508444  3
   4719   4730   4733   4735     1  0.0000000  0.6508444  3
   4720   4719   4730   4731     1  0.0000000  1.2552000  3
   4720   4719   4730   4732     1  0.0000000  1.2552000  3
   4721   4720   4719   4730     1  0.0000000  1.2552000  3
   4721   4720   4723   4726     1  0.0000000  0.6508444  3
   4721   4720   4723   4724     1  0.0000000  0.6508444  3
   4721   4720   4723   4725     1  0.0000000  0.6508444  3
   4722   4720   4719   4730     1  0.0000000  1.2552000  3
   4722   4720   4723   4726     1  0.0000000  0.6508444  3
   4722   4720   4723   4724     1  0.0000000  0.6508444  3
   4722   4720   4723   4725     1  0.0000000  0.6508444  3
   4723   4726   4728   4729     1  180.0000771  9.6232000  2
   4724   4723   4726   4727     1  0.0000000  3.3472000  1
   4724   4723   4726   4727     1  0.0000000  0.0000000  2
   4724   4723   4726   4727     1  180.0000771  0.3347200  3
   4724   4723   4726   4728     1  180.0000771  0.0000000  2
   4725   4723   4726   4727     1  0.0000000  3.3472000  1
   4725   4723   4726   4727     1  0.0000000  0.0000000  2
   4725   4723   4726   4727     1  180.0000771  0.3347200  3
   4725   4723   4726   4728     1  180.0000771  0.0000000  2
   4727   4726   4728   4729     1  0.0000000  7.9496000  1
   4727   4726   4728   4729     1  180.0000771  9.6232000  2
   4731   4730   4733   4736     1  0.0000000  0.6508444  3
   4731   4730   4733   4734     1  0.0000000  0.6508444  3
   4731   4730   4733   4735     1  0.0000000  0.6508444  3
   4732   4730   4733   4736     1  0.0000000  0.6508444  3
   4732   4730   4733   4734     1  0.0000000  0.6508444  3
   4732   4730   4733   4735     1  0.0000000  0.6508444  3
   4733   4736   4738   4739     1  180.0000771  9.6232000  2
   4734   4733   4736   4737     1  0.0000000  3.3472000  1
   4734   4733   4736   4737     1  0.0000000  0.0000000  2
   4734   4733   4736   4737     1  180.0000771  0.3347200  3
   4734   4733   4736   4738     1  180.0000771  0.0000000  2
   4735   4733   4736   4737     1  0.0000000  3.3472000  1
   4735   4733   4736   4737     1  0.0000000  0.0000000  2
   4735   4733   4736   4737     1  180.0000771  0.3347200  3
   4735   4733   4736   4738     1  180.0000771  0.0000000  2
   4737   4736   4738   4739     1  0.0000000  7.9496000  1
   4737   4736   4738   4739     1  180.0000771  9.6232000  2
   4741   4744   4747   4748     1  0.0000000  0.6508444  3
   4741   4744   4747   4749     1  0.0000000  0.6508444  3
   4742   4741   4744   4747     1  0.0000000  0.6508444  3
   4742   4741   4744   4745     1  0.0000000  0.6508444  3
   4742   4741   4744   4746     1  0.0000000  0.6508444  3
   4743   4741   4744   4747     1  0.0000000  0.6508444  3
   4743   4741   4744   4745     1  0.0000000  0.6508444  3
   4743   4741   4744   4746     1  0.0000000  0.6508444  3
   4745   4744   4747   4750     1  0.0000000  0.6508444  3
   4745   4744   4747   4748     1  0.0000000  0.6508444  3
   4745   4744   4747   4749     1  0.0000000  0.6508444  3
   4745   4744   4741   4771     1  0.0000000  1.0460000  1
   4745   4744   4741   4771     1  0.0000000  0.0000000  3
   4746   4744   4747   4750     1  0.0000000  0.6508444  3
   4746   4744   4747   4748     1  0.0000000  0.6508444  3
   4746   4744   4747   4749     1  0.0000000  0.6508444  3
   4746   4744   4741   4771     1  0.0000000  1.0460000  1
   4746   4744   4741   4771     1  0.0000000  0.0000000  3
   4747   4750   4751   4752     1  0.0000000  1.2552000  3
   4747   4750   4751   4753     1  0.0000000  1.2552000  3
   4747   4750   4761   4762     1  0.0000000  1.2552000  3
   4747   4750   4761   4763     1  0.0000000  1.2552000  3
   4748   4747   4750   4751     1  0.0000000  1.2552000  3
   4748   4747   4750   4761     1  0.0000000  1.2552000  3
   4749   4747   4750   4751     1  0.0000000  1.2552000  3
   4749   4747   4750   4761     1  0.0000000  1.2552000  3
   4750   4751   4754   4755     1  0.0000000  0.6508444  3
   4750   4751   4754   4756     1  0.0000000  0.6508444  3
   4750   4761   4764   4765     1  0.0000000  0.6508444  3
   4750   4761   4764   4766     1  0.0000000  0.6508444  3
   4751   4750   4761   4762     1  0.0000000  1.2552000  3
   4751   4750   4761   4763     1  0.0000000  1.2552000  3
   4752   4751   4754   4757     1  0.0000000  0.6508444  3
   4752   4751   4754   4755     1  0.0000000  0.6508444  3
   4752   4751   4754   4756     1  0.0000000  0.6508444  3
   4752   4751   4750   4761     1  0.0000000  1.2552000  3
   4753   4751   4754   4757     1  0.0000000  0.6508444  3
   4753   4751   4754   4755     1  0.0000000  0.6508444  3
   4753   4751   4754   4756     1  0.0000000  0.6508444  3
   4753   4751   4750   4761     1  0.0000000  1.2552000  3
   4754   4757   4759   4760     1  180.0000771  9.6232000  2
   4755   4754   4757   4758     1  0.0000000  3.3472000  1
   4755   4754   4757   4758     1  0.0000000  0.0000000  2
   4755   4754   4757   4758     1  180.0000771  0.3347200  3
   4755   4754   4757   4759     1  180.0000771  0.0000000  2
   4756   4754   4757   4758     1  0.0000000  3.3472000  1
   4756   4754   4757   4758     1  0.0000000  0.0000000  2
   4756   4754   4757   4758     1  180.0000771  0.3347200  3
   4756   4754   4757   4759     1  180.0000771  0.0000000  2
   4758   4757   4759   4760     1  0.0000000  7.9496000  1
   4758   4757   4759   4760     1  180.0000771  9.6232000  2
   4762   4761   4764   4767     1  0.0000000  0.6508444  3
   4762   4761   4764   4765     1  0.0000000  0.6508444  3
   4762   4761   4764   4766     1  0.0000000  0.6508444  3
   4763   4761   4764   4767     1  0.0000000  0.6508444  3
   4763   4761   4764   4765     1  0.0000000  0.6508444  3
   4763   4761   4764   4766     1  0.0000000  0.6508444  3
   4764   4767   4769   4770     1  180.0000771  9.6232000  2
   4765   4764   4767   4768     1  0.0000000  3.3472000  1
   4765   4764   4767   4768     1  0.0000000  0.0000000  2
   4765   4764   4767   4768     1  180.0000771  0.3347200  3
   4765   4764   4767   4769     1  180.0000771  0.0000000  2
   4766   4764   4767   4768     1  0.0000000  3.3472000  1
   4766   4764   4767   4768     1  0.0000000  0.0000000  2
   4766   4764   4767   4768     1  180.0000771  0.3347200  3
   4766   4764   4767   4769     1  180.0000771  0.0000000  2
   4768   4767   4769   4770     1  0.0000000  7.9496000  1
   4768   4767   4769   4770     1  180.0000771  9.6232000  2
   4772   4775   4778   4779     1  0.0000000  0.6508444  3
   4772   4775   4778   4780     1  0.0000000  0.6508444  3
   4773   4772   4775   4778     1  0.0000000  0.6508444  3
   4773   4772   4775   4776     1  0.0000000  0.6508444  3
   4773   4772   4775   4777     1  0.0000000  0.6508444  3
   4774   4772   4775   4778     1  0.0000000  0.6508444  3
   4774   4772   4775   4776     1  0.0000000  0.6508444  3
   4774   4772   4775   4777     1  0.0000000  0.6508444  3
   4776   4775   4772   4802     1  0.0000000  1.0460000  1
   4776   4775   4772   4802     1  0.0000000  0.0000000  3
   4776   4775   4778   4781     1  0.0000000  0.6508444  3
   4776   4775   4778   4779     1  0.0000000  0.6508444  3
   4776   4775   4778   4780     1  0.0000000  0.6508444  3
   4777   4775   4772   4802     1  0.0000000  1.0460000  1
   4777   4775   4772   4802     1  0.0000000  0.0000000  3
   4777   4775   4778   4781     1  0.0000000  0.6508444  3
   4777   4775   4778   4779     1  0.0000000  0.6508444  3
   4777   4775   4778   4780     1  0.0000000  0.6508444  3
   4778   4781   4782   4783     1  0.0000000  1.2552000  3
   4778   4781   4782   4784     1  0.0000000  1.2552000  3
   4778   4781   4792   4793     1  0.0000000  1.2552000  3
   4778   4781   4792   4794     1  0.0000000  1.2552000  3
   4779   4778   4781   4782     1  0.0000000  1.2552000  3
   4779   4778   4781   4792     1  0.0000000  1.2552000  3
   4780   4778   4781   4782     1  0.0000000  1.2552000  3
   4780   4778   4781   4792     1  0.0000000  1.2552000  3
   4781   4782   4785   4786     1  0.0000000  0.6508444  3
   4781   4782   4785   4787     1  0.0000000  0.6508444  3
   4781   4792   4795   4796     1  0.0000000  0.6508444  3
   4781   4792   4795   4797     1  0.0000000  0.6508444  3
   4782   4781   4792   4793     1  0.0000000  1.2552000  3
   4782   4781   4792   4794     1  0.0000000  1.2552000  3
   4783   4782   4781   4792     1  0.0000000  1.2552000  3
   4783   4782   4785   4788     1  0.0000000  0.6508444  3
   4783   4782   4785   4786     1  0.0000000  0.6508444  3
   4783   4782   4785   4787     1  0.0000000  0.6508444  3
   4784   4782   4781   4792     1  0.0000000  1.2552000  3
   4784   4782   4785   4788     1  0.0000000  0.6508444  3
   4784   4782   4785   4786     1  0.0000000  0.6508444  3
   4784   4782   4785   4787     1  0.0000000  0.6508444  3
   4785   4788   4790   4791     1  180.0000771  9.6232000  2
   4786   4785   4788   4789     1  0.0000000  3.3472000  1
   4786   4785   4788   4789     1  0.0000000  0.0000000  2
   4786   4785   4788   4789     1  180.0000771  0.3347200  3
   4786   4785   4788   4790     1  180.0000771  0.0000000  2
   4787   4785   4788   4789     1  0.0000000  3.3472000  1
   4787   4785   4788   4789     1  0.0000000  0.0000000  2
   4787   4785   4788   4789     1  180.0000771  0.3347200  3
   4787   4785   4788   4790     1  180.0000771  0.0000000  2
   4789   4788   4790   4791     1  0.0000000  7.9496000  1
   4789   4788   4790   4791     1  180.0000771  9.6232000  2
   4793   4792   4795   4798     1  0.0000000  0.6508444  3
   4793   4792   4795   4796     1  0.0000000  0.6508444  3
   4793   4792   4795   4797     1  0.0000000  0.6508444  3
   4794   4792   4795   4798     1  0.0000000  0.6508444  3
   4794   4792   4795   4796     1  0.0000000  0.6508444  3
   4794   4792   4795   4797     1  0.0000000  0.6508444  3
   4795   4798   4800   4801     1  180.0000771  9.6232000  2
   4796   4795   4798   4799     1  0.0000000  3.3472000  1
   4796   4795   4798   4799     1  0.0000000  0.0000000  2
   4796   4795   4798   4799     1  180.0000771  0.3347200  3
   4796   4795   4798   4800     1  180.0000771  0.0000000  2
   4797   4795   4798   4799     1  0.0000000  3.3472000  1
   4797   4795   4798   4799     1  0.0000000  0.0000000  2
   4797   4795   4798   4799     1  180.0000771  0.3347200  3
   4797   4795   4798   4800     1  180.0000771  0.0000000  2
   4799   4798   4800   4801     1  0.0000000  7.9496000  1
   4799   4798   4800   4801     1  180.0000771  9.6232000  2
   4803   4806   4809   4810     1  0.0000000  0.6508444  3
   4803   4806   4809   4811     1  0.0000000  0.6508444  3
   4804   4803   4806   4809     1  0.0000000  0.6508444  3
   4804   4803   4806   4807     1  0.0000000  0.6508444  3
   4804   4803   4806   4808     1  0.0000000  0.6508444  3
   4805   4803   4806   4809     1  0.0000000  0.6508444  3
   4805   4803   4806   4807     1  0.0000000  0.6508444  3
   4805   4803   4806   4808     1  0.0000000  0.6508444  3
   4807   4806   4809   4812     1  0.0000000  0.6508444  3
   4807   4806   4809   4810     1  0.0000000  0.6508444  3
   4807   4806   4809   4811     1  0.0000000  0.6508444  3
   4807   4806   4803   4833     1  0.0000000  1.0460000  1
   4807   4806   4803   4833     1  0.0000000  0.0000000  3
   4808   4806   4809   4812     1  0.0000000  0.6508444  3
   4808   4806   4809   4810     1  0.0000000  0.6508444  3
   4808   4806   4809   4811     1  0.0000000  0.6508444  3
   4808   4806   4803   4833     1  0.0000000  1.0460000  1
   4808   4806   4803   4833     1  0.0000000  0.0000000  3
   4809   4812   4813   4814     1  0.0000000  1.2552000  3
   4809   4812   4813   4815     1  0.0000000  1.2552000  3
   4809   4812   4823   4824     1  0.0000000  1.2552000  3
   4809   4812   4823   4825     1  0.0000000  1.2552000  3
   4810   4809   4812   4813     1  0.0000000  1.2552000  3
   4810   4809   4812   4823     1  0.0000000  1.2552000  3
   4811   4809   4812   4813     1  0.0000000  1.2552000  3
   4811   4809   4812   4823     1  0.0000000  1.2552000  3
   4812   4813   4816   4817     1  0.0000000  0.6508444  3
   4812   4813   4816   4818     1  0.0000000  0.6508444  3
   4812   4823   4826   4827     1  0.0000000  0.6508444  3
   4812   4823   4826   4828     1  0.0000000  0.6508444  3
   4813   4812   4823   4824     1  0.0000000  1.2552000  3
   4813   4812   4823   4825     1  0.0000000  1.2552000  3
   4814   4813   4816   4819     1  0.0000000  0.6508444  3
   4814   4813   4816   4817     1  0.0000000  0.6508444  3
   4814   4813   4816   4818     1  0.0000000  0.6508444  3
   4814   4813   4812   4823     1  0.0000000  1.2552000  3
   4815   4813   4816   4819     1  0.0000000  0.6508444  3
   4815   4813   4816   4817     1  0.0000000  0.6508444  3
   4815   4813   4816   4818     1  0.0000000  0.6508444  3
   4815   4813   4812   4823     1  0.0000000  1.2552000  3
   4816   4819   4821   4822     1  180.0000771  9.6232000  2
   4817   4816   4819   4820     1  0.0000000  3.3472000  1
   4817   4816   4819   4820     1  0.0000000  0.0000000  2
   4817   4816   4819   4820     1  180.0000771  0.3347200  3
   4817   4816   4819   4821     1  180.0000771  0.0000000  2
   4818   4816   4819   4820     1  0.0000000  3.3472000  1
   4818   4816   4819   4820     1  0.0000000  0.0000000  2
   4818   4816   4819   4820     1  180.0000771  0.3347200  3
   4818   4816   4819   4821     1  180.0000771  0.0000000  2
   4820   4819   4821   4822     1  0.0000000  7.9496000  1
   4820   4819   4821   4822     1  180.0000771  9.6232000  2
   4824   4823   4826   4829     1  0.0000000  0.6508444  3
   4824   4823   4826   4827     1  0.0000000  0.6508444  3
   4824   4823   4826   4828     1  0.0000000  0.6508444  3
   4825   4823   4826   4829     1  0.0000000  0.6508444  3
   4825   4823   4826   4827     1  0.0000000  0.6508444  3
   4825   4823   4826   4828     1  0.0000000  0.6508444  3
   4826   4829   4831   4832     1  180.0000771  9.6232000  2
   4827   4826   4829   4830     1  0.0000000  3.3472000  1
   4827   4826   4829   4830     1  0.0000000  0.0000000  2
   4827   4826   4829   4830     1  180.0000771  0.3347200  3
   4827   4826   4829   4831     1  180.0000771  0.0000000  2
   4828   4826   4829   4830     1  0.0000000  3.3472000  1
   4828   4826   4829   4830     1  0.0000000  0.0000000  2
   4828   4826   4829   4830     1  180.0000771  0.3347200  3
   4828   4826   4829   4831     1  180.0000771  0.0000000  2
   4830   4829   4831   4832     1  0.0000000  7.9496000  1
   4830   4829   4831   4832     1  180.0000771  9.6232000  2
   4834   4837   4840   4841     1  0.0000000  0.6508444  3
   4834   4837   4840   4842     1  0.0000000  0.6508444  3
   4835   4834   4837   4840     1  0.0000000  0.6508444  3
   4835   4834   4837   4838     1  0.0000000  0.6508444  3
   4835   4834   4837   4839     1  0.0000000  0.6508444  3
   4836   4834   4837   4840     1  0.0000000  0.6508444  3
   4836   4834   4837   4838     1  0.0000000  0.6508444  3
   4836   4834   4837   4839     1  0.0000000  0.6508444  3
   4838   4837   4834   4864     1  0.0000000  1.0460000  1
   4838   4837   4834   4864     1  0.0000000  0.0000000  3
   4838   4837   4840   4843     1  0.0000000  0.6508444  3
   4838   4837   4840   4841     1  0.0000000  0.6508444  3
   4838   4837   4840   4842     1  0.0000000  0.6508444  3
   4839   4837   4834   4864     1  0.0000000  1.0460000  1
   4839   4837   4834   4864     1  0.0000000  0.0000000  3
   4839   4837   4840   4843     1  0.0000000  0.6508444  3
   4839   4837   4840   4841     1  0.0000000  0.6508444  3
   4839   4837   4840   4842     1  0.0000000  0.6508444  3
   4840   4843   4844   4845     1  0.0000000  1.2552000  3
   4840   4843   4844   4846     1  0.0000000  1.2552000  3
   4840   4843   4854   4855     1  0.0000000  1.2552000  3
   4840   4843   4854   4856     1  0.0000000  1.2552000  3
   4841   4840   4843   4844     1  0.0000000  1.2552000  3
   4841   4840   4843   4854     1  0.0000000  1.2552000  3
   4842   4840   4843   4844     1  0.0000000  1.2552000  3
   4842   4840   4843   4854     1  0.0000000  1.2552000  3
   4843   4844   4847   4848     1  0.0000000  0.6508444  3
   4843   4844   4847   4849     1  0.0000000  0.6508444  3
   4843   4854   4857   4858     1  0.0000000  0.6508444  3
   4843   4854   4857   4859     1  0.0000000  0.6508444  3
   4844   4843   4854   4855     1  0.0000000  1.2552000  3
   4844   4843   4854   4856     1  0.0000000  1.2552000  3
   4845   4844   4843   4854     1  0.0000000  1.2552000  3
   4845   4844   4847   4850     1  0.0000000  0.6508444  3
   4845   4844   4847   4848     1  0.0000000  0.6508444  3
   4845   4844   4847   4849     1  0.0000000  0.6508444  3
   4846   4844   4843   4854     1  0.0000000  1.2552000  3
   4846   4844   4847   4850     1  0.0000000  0.6508444  3
   4846   4844   4847   4848     1  0.0000000  0.6508444  3
   4846   4844   4847   4849     1  0.0000000  0.6508444  3
   4847   4850   4852   4853     1  180.0000771  9.6232000  2
   4848   4847   4850   4851     1  0.0000000  3.3472000  1
   4848   4847   4850   4851     1  0.0000000  0.0000000  2
   4848   4847   4850   4851     1  180.0000771  0.3347200  3
   4848   4847   4850   4852     1  180.0000771  0.0000000  2
   4849   4847   4850   4851     1  0.0000000  3.3472000  1
   4849   4847   4850   4851     1  0.0000000  0.0000000  2
   4849   4847   4850   4851     1  180.0000771  0.3347200  3
   4849   4847   4850   4852     1  180.0000771  0.0000000  2
   4851   4850   4852   4853     1  0.0000000  7.9496000  1
   4851   4850   4852   4853     1  180.0000771  9.6232000  2
   4855   4854   4857   4860     1  0.0000000  0.6508444  3
   4855   4854   4857   4858     1  0.0000000  0.6508444  3
   4855   4854   4857   4859     1  0.0000000  0.6508444  3
   4856   4854   4857   4860     1  0.0000000  0.6508444  3
   4856   4854   4857   4858     1  0.0000000  0.6508444  3
   4856   4854   4857   4859     1  0.0000000  0.6508444  3
   4857   4860   4862   4863     1  180.0000771  9.6232000  2
   4858   4857   4860   4861     1  0.0000000  3.3472000  1
   4858   4857   4860   4861     1  0.0000000  0.0000000  2
   4858   4857   4860   4861     1  180.0000771  0.3347200  3
   4858   4857   4860   4862     1  180.0000771  0.0000000  2
   4859   4857   4860   4861     1  0.0000000  3.3472000  1
   4859   4857   4860   4861     1  0.0000000  0.0000000  2
   4859   4857   4860   4861     1  180.0000771  0.3347200  3
   4859   4857   4860   4862     1  180.0000771  0.0000000  2
   4861   4860   4862   4863     1  0.0000000  7.9496000  1
   4861   4860   4862   4863     1  180.0000771  9.6232000  2
   4865   4868   4871   4872     1  0.0000000  0.6508444  3
   4865   4868   4871   4873     1  0.0000000  0.6508444  3
   4866   4865   4868   4871     1  0.0000000  0.6508444  3
   4866   4865   4868   4869     1  0.0000000  0.6508444  3
   4866   4865   4868   4870     1  0.0000000  0.6508444  3
   4867   4865   4868   4871     1  0.0000000  0.6508444  3
   4867   4865   4868   4869     1  0.0000000  0.6508444  3
   4867   4865   4868   4870     1  0.0000000  0.6508444  3
   4869   4868   4871   4874     1  0.0000000  0.6508444  3
   4869   4868   4871   4872     1  0.0000000  0.6508444  3
   4869   4868   4871   4873     1  0.0000000  0.6508444  3
   4869   4868   4865   4895     1  0.0000000  1.0460000  1
   4869   4868   4865   4895     1  0.0000000  0.0000000  3
   4870   4868   4871   4874     1  0.0000000  0.6508444  3
   4870   4868   4871   4872     1  0.0000000  0.6508444  3
   4870   4868   4871   4873     1  0.0000000  0.6508444  3
   4870   4868   4865   4895     1  0.0000000  1.0460000  1
   4870   4868   4865   4895     1  0.0000000  0.0000000  3
   4871   4874   4875   4876     1  0.0000000  1.2552000  3
   4871   4874   4875   4877     1  0.0000000  1.2552000  3
   4871   4874   4885   4886     1  0.0000000  1.2552000  3
   4871   4874   4885   4887     1  0.0000000  1.2552000  3
   4872   4871   4874   4875     1  0.0000000  1.2552000  3
   4872   4871   4874   4885     1  0.0000000  1.2552000  3
   4873   4871   4874   4875     1  0.0000000  1.2552000  3
   4873   4871   4874   4885     1  0.0000000  1.2552000  3
   4874   4875   4878   4879     1  0.0000000  0.6508444  3
   4874   4875   4878   4880     1  0.0000000  0.6508444  3
   4874   4885   4888   4889     1  0.0000000  0.6508444  3
   4874   4885   4888   4890     1  0.0000000  0.6508444  3
   4875   4874   4885   4886     1  0.0000000  1.2552000  3
   4875   4874   4885   4887     1  0.0000000  1.2552000  3
   4876   4875   4878   4881     1  0.0000000  0.6508444  3
   4876   4875   4878   4879     1  0.0000000  0.6508444  3
   4876   4875   4878   4880     1  0.0000000  0.6508444  3
   4876   4875   4874   4885     1  0.0000000  1.2552000  3
   4877   4875   4878   4881     1  0.0000000  0.6508444  3
   4877   4875   4878   4879     1  0.0000000  0.6508444  3
   4877   4875   4878   4880     1  0.0000000  0.6508444  3
   4877   4875   4874   4885     1  0.0000000  1.2552000  3
   4878   4881   4883   4884     1  180.0000771  9.6232000  2
   4879   4878   4881   4882     1  0.0000000  3.3472000  1
   4879   4878   4881   4882     1  0.0000000  0.0000000  2
   4879   4878   4881   4882     1  180.0000771  0.3347200  3
   4879   4878   4881   4883     1  180.0000771  0.0000000  2
   4880   4878   4881   4882     1  0.0000000  3.3472000  1
   4880   4878   4881   4882     1  0.0000000  0.0000000  2
   4880   4878   4881   4882     1  180.0000771  0.3347200  3
   4880   4878   4881   4883     1  180.0000771  0.0000000  2
   4882   4881   4883   4884     1  0.0000000  7.9496000  1
   4882   4881   4883   4884     1  180.0000771  9.6232000  2
   4886   4885   4888   4891     1  0.0000000  0.6508444  3
   4886   4885   4888   4889     1  0.0000000  0.6508444  3
   4886   4885   4888   4890     1  0.0000000  0.6508444  3
   4887   4885   4888   4891     1  0.0000000  0.6508444  3
   4887   4885   4888   4889     1  0.0000000  0.6508444  3
   4887   4885   4888   4890     1  0.0000000  0.6508444  3
   4888   4891   4893   4894     1  180.0000771  9.6232000  2
   4889   4888   4891   4892     1  0.0000000  3.3472000  1
   4889   4888   4891   4892     1  0.0000000  0.0000000  2
   4889   4888   4891   4892     1  180.0000771  0.3347200  3
   4889   4888   4891   4893     1  180.0000771  0.0000000  2
   4890   4888   4891   4892     1  0.0000000  3.3472000  1
   4890   4888   4891   4892     1  0.0000000  0.0000000  2
   4890   4888   4891   4892     1  180.0000771  0.3347200  3
   4890   4888   4891   4893     1  180.0000771  0.0000000  2
   4892   4891   4893   4894     1  0.0000000  7.9496000  1
   4892   4891   4893   4894     1  180.0000771  9.6232000  2
   4896   4899   4902   4903     1  0.0000000  0.6508444  3
   4896   4899   4902   4904     1  0.0000000  0.6508444  3
   4897   4896   4899   4902     1  0.0000000  0.6508444  3
   4897   4896   4899   4900     1  0.0000000  0.6508444  3
   4897   4896   4899   4901     1  0.0000000  0.6508444  3
   4898   4896   4899   4902     1  0.0000000  0.6508444  3
   4898   4896   4899   4900     1  0.0000000  0.6508444  3
   4898   4896   4899   4901     1  0.0000000  0.6508444  3
   4900   4899   4896   4926     1  0.0000000  1.0460000  1
   4900   4899   4896   4926     1  0.0000000  0.0000000  3
   4900   4899   4902   4905     1  0.0000000  0.6508444  3
   4900   4899   4902   4903     1  0.0000000  0.6508444  3
   4900   4899   4902   4904     1  0.0000000  0.6508444  3
   4901   4899   4896   4926     1  0.0000000  1.0460000  1
   4901   4899   4896   4926     1  0.0000000  0.0000000  3
   4901   4899   4902   4905     1  0.0000000  0.6508444  3
   4901   4899   4902   4903     1  0.0000000  0.6508444  3
   4901   4899   4902   4904     1  0.0000000  0.6508444  3
   4902   4905   4906   4907     1  0.0000000  1.2552000  3
   4902   4905   4906   4908     1  0.0000000  1.2552000  3
   4902   4905   4916   4917     1  0.0000000  1.2552000  3
   4902   4905   4916   4918     1  0.0000000  1.2552000  3
   4903   4902   4905   4906     1  0.0000000  1.2552000  3
   4903   4902   4905   4916     1  0.0000000  1.2552000  3
   4904   4902   4905   4906     1  0.0000000  1.2552000  3
   4904   4902   4905   4916     1  0.0000000  1.2552000  3
   4905   4906   4909   4910     1  0.0000000  0.6508444  3
   4905   4906   4909   4911     1  0.0000000  0.6508444  3
   4905   4916   4919   4920     1  0.0000000  0.6508444  3
   4905   4916   4919   4921     1  0.0000000  0.6508444  3
   4906   4905   4916   4917     1  0.0000000  1.2552000  3
   4906   4905   4916   4918     1  0.0000000  1.2552000  3
   4907   4906   4905   4916     1  0.0000000  1.2552000  3
   4907   4906   4909   4912     1  0.0000000  0.6508444  3
   4907   4906   4909   4910     1  0.0000000  0.6508444  3
   4907   4906   4909   4911     1  0.0000000  0.6508444  3
   4908   4906   4905   4916     1  0.0000000  1.2552000  3
   4908   4906   4909   4912     1  0.0000000  0.6508444  3
   4908   4906   4909   4910     1  0.0000000  0.6508444  3
   4908   4906   4909   4911     1  0.0000000  0.6508444  3
   4909   4912   4914   4915     1  180.0000771  9.6232000  2
   4910   4909   4912   4913     1  0.0000000  3.3472000  1
   4910   4909   4912   4913     1  0.0000000  0.0000000  2
   4910   4909   4912   4913     1  180.0000771  0.3347200  3
   4910   4909   4912   4914     1  180.0000771  0.0000000  2
   4911   4909   4912   4913     1  0.0000000  3.3472000  1
   4911   4909   4912   4913     1  0.0000000  0.0000000  2
   4911   4909   4912   4913     1  180.0000771  0.3347200  3
   4911   4909   4912   4914     1  180.0000771  0.0000000  2
   4913   4912   4914   4915     1  0.0000000  7.9496000  1
   4913   4912   4914   4915     1  180.0000771  9.6232000  2
   4917   4916   4919   4922     1  0.0000000  0.6508444  3
   4917   4916   4919   4920     1  0.0000000  0.6508444  3
   4917   4916   4919   4921     1  0.0000000  0.6508444  3
   4918   4916   4919   4922     1  0.0000000  0.6508444  3
   4918   4916   4919   4920     1  0.0000000  0.6508444  3
   4918   4916   4919   4921     1  0.0000000  0.6508444  3
   4919   4922   4924   4925     1  180.0000771  9.6232000  2
   4920   4919   4922   4923     1  0.0000000  3.3472000  1
   4920   4919   4922   4923     1  0.0000000  0.0000000  2
   4920   4919   4922   4923     1  180.0000771  0.3347200  3
   4920   4919   4922   4924     1  180.0000771  0.0000000  2
   4921   4919   4922   4923     1  0.0000000  3.3472000  1
   4921   4919   4922   4923     1  0.0000000  0.0000000  2
   4921   4919   4922   4923     1  180.0000771  0.3347200  3
   4921   4919   4922   4924     1  180.0000771  0.0000000  2
   4923   4922   4924   4925     1  0.0000000  7.9496000  1
   4923   4922   4924   4925     1  180.0000771  9.6232000  2
   4927   4930   4933   4934     1  0.0000000  0.6508444  3
   4927   4930   4933   4935     1  0.0000000  0.6508444  3
   4928   4927   4930   4933     1  0.0000000  0.6508444  3
   4928   4927   4930   4931     1  0.0000000  0.6508444  3
   4928   4927   4930   4932     1  0.0000000  0.6508444  3
   4929   4927   4930   4933     1  0.0000000  0.6508444  3
   4929   4927   4930   4931     1  0.0000000  0.6508444  3
   4929   4927   4930   4932     1  0.0000000  0.6508444  3
   4931   4930   4933   4936     1  0.0000000  0.6508444  3
   4931   4930   4933   4934     1  0.0000000  0.6508444  3
   4931   4930   4933   4935     1  0.0000000  0.6508444  3
   4931   4930   4927   4957     1  0.0000000  1.0460000  1
   4931   4930   4927   4957     1  0.0000000  0.0000000  3
   4932   4930   4933   4936     1  0.0000000  0.6508444  3
   4932   4930   4933   4934     1  0.0000000  0.6508444  3
   4932   4930   4933   4935     1  0.0000000  0.6508444  3
   4932   4930   4927   4957     1  0.0000000  1.0460000  1
   4932   4930   4927   4957     1  0.0000000  0.0000000  3
   4933   4936   4937   4938     1  0.0000000  1.2552000  3
   4933   4936   4937   4939     1  0.0000000  1.2552000  3
   4933   4936   4947   4948     1  0.0000000  1.2552000  3
   4933   4936   4947   4949     1  0.0000000  1.2552000  3
   4934   4933   4936   4937     1  0.0000000  1.2552000  3
   4934   4933   4936   4947     1  0.0000000  1.2552000  3
   4935   4933   4936   4937     1  0.0000000  1.2552000  3
   4935   4933   4936   4947     1  0.0000000  1.2552000  3
   4936   4937   4940   4941     1  0.0000000  0.6508444  3
   4936   4937   4940   4942     1  0.0000000  0.6508444  3
   4936   4947   4950   4951     1  0.0000000  0.6508444  3
   4936   4947   4950   4952     1  0.0000000  0.6508444  3
   4937   4936   4947   4948     1  0.0000000  1.2552000  3
   4937   4936   4947   4949     1  0.0000000  1.2552000  3
   4938   4937   4940   4943     1  0.0000000  0.6508444  3
   4938   4937   4940   4941     1  0.0000000  0.6508444  3
   4938   4937   4940   4942     1  0.0000000  0.6508444  3
   4938   4937   4936   4947     1  0.0000000  1.2552000  3
   4939   4937   4940   4943     1  0.0000000  0.6508444  3
   4939   4937   4940   4941     1  0.0000000  0.6508444  3
   4939   4937   4940   4942     1  0.0000000  0.6508444  3
   4939   4937   4936   4947     1  0.0000000  1.2552000  3
   4940   4943   4945   4946     1  180.0000771  9.6232000  2
   4941   4940   4943   4944     1  0.0000000  3.3472000  1
   4941   4940   4943   4944     1  0.0000000  0.0000000  2
   4941   4940   4943   4944     1  180.0000771  0.3347200  3
   4941   4940   4943   4945     1  180.0000771  0.0000000  2
   4942   4940   4943   4944     1  0.0000000  3.3472000  1
   4942   4940   4943   4944     1  0.0000000  0.0000000  2
   4942   4940   4943   4944     1  180.0000771  0.3347200  3
   4942   4940   4943   4945     1  180.0000771  0.0000000  2
   4944   4943   4945   4946     1  0.0000000  7.9496000  1
   4944   4943   4945   4946     1  180.0000771  9.6232000  2
   4948   4947   4950   4953     1  0.0000000  0.6508444  3
   4948   4947   4950   4951     1  0.0000000  0.6508444  3
   4948   4947   4950   4952     1  0.0000000  0.6508444  3
   4949   4947   4950   4953     1  0.0000000  0.6508444  3
   4949   4947   4950   4951     1  0.0000000  0.6508444  3
   4949   4947   4950   4952     1  0.0000000  0.6508444  3
   4950   4953   4955   4956     1  180.0000771  9.6232000  2
   4951   4950   4953   4954     1  0.0000000  3.3472000  1
   4951   4950   4953   4954     1  0.0000000  0.0000000  2
   4951   4950   4953   4954     1  180.0000771  0.3347200  3
   4951   4950   4953   4955     1  180.0000771  0.0000000  2
   4952   4950   4953   4954     1  0.0000000  3.3472000  1
   4952   4950   4953   4954     1  0.0000000  0.0000000  2
   4952   4950   4953   4954     1  180.0000771  0.3347200  3
   4952   4950   4953   4955     1  180.0000771  0.0000000  2
   4954   4953   4955   4956     1  0.0000000  7.9496000  1
   4954   4953   4955   4956     1  180.0000771  9.6232000  2
   4958   4961   4964   4965     1  0.0000000  0.6508444  3
   4958   4961   4964   4966     1  0.0000000  0.6508444  3
   4959   4958   4961   4964     1  0.0000000  0.6508444  3
   4959   4958   4961   4962     1  0.0000000  0.6508444  3
   4959   4958   4961   4963     1  0.0000000  0.6508444  3
   4960   4958   4961   4964     1  0.0000000  0.6508444  3
   4960   4958   4961   4962     1  0.0000000  0.6508444  3
   4960   4958   4961   4963     1  0.0000000  0.6508444  3
   4962   4961   4958   4988     1  0.0000000  1.0460000  1
   4962   4961   4958   4988     1  0.0000000  0.0000000  3
   4962   4961   4964   4967     1  0.0000000  0.6508444  3
   4962   4961   4964   4965     1  0.0000000  0.6508444  3
   4962   4961   4964   4966     1  0.0000000  0.6508444  3
   4963   4961   4958   4988     1  0.0000000  1.0460000  1
   4963   4961   4958   4988     1  0.0000000  0.0000000  3
   4963   4961   4964   4967     1  0.0000000  0.6508444  3
   4963   4961   4964   4965     1  0.0000000  0.6508444  3
   4963   4961   4964   4966     1  0.0000000  0.6508444  3
   4964   4967   4968   4969     1  0.0000000  1.2552000  3
   4964   4967   4968   4970     1  0.0000000  1.2552000  3
   4964   4967   4978   4979     1  0.0000000  1.2552000  3
   4964   4967   4978   4980     1  0.0000000  1.2552000  3
   4965   4964   4967   4968     1  0.0000000  1.2552000  3
   4965   4964   4967   4978     1  0.0000000  1.2552000  3
   4966   4964   4967   4968     1  0.0000000  1.2552000  3
   4966   4964   4967   4978     1  0.0000000  1.2552000  3
   4967   4968   4971   4972     1  0.0000000  0.6508444  3
   4967   4968   4971   4973     1  0.0000000  0.6508444  3
   4967   4978   4981   4982     1  0.0000000  0.6508444  3
   4967   4978   4981   4983     1  0.0000000  0.6508444  3
   4968   4967   4978   4979     1  0.0000000  1.2552000  3
   4968   4967   4978   4980     1  0.0000000  1.2552000  3
   4969   4968   4967   4978     1  0.0000000  1.2552000  3
   4969   4968   4971   4974     1  0.0000000  0.6508444  3
   4969   4968   4971   4972     1  0.0000000  0.6508444  3
   4969   4968   4971   4973     1  0.0000000  0.6508444  3
   4970   4968   4967   4978     1  0.0000000  1.2552000  3
   4970   4968   4971   4974     1  0.0000000  0.6508444  3
   4970   4968   4971   4972     1  0.0000000  0.6508444  3
   4970   4968   4971   4973     1  0.0000000  0.6508444  3
   4971   4974   4976   4977     1  180.0000771  9.6232000  2
   4972   4971   4974   4975     1  0.0000000  3.3472000  1
   4972   4971   4974   4975     1  0.0000000  0.0000000  2
   4972   4971   4974   4975     1  180.0000771  0.3347200  3
   4972   4971   4974   4976     1  180.0000771  0.0000000  2
   4973   4971   4974   4975     1  0.0000000  3.3472000  1
   4973   4971   4974   4975     1  0.0000000  0.0000000  2
   4973   4971   4974   4975     1  180.0000771  0.3347200  3
   4973   4971   4974   4976     1  180.0000771  0.0000000  2
   4975   4974   4976   4977     1  0.0000000  7.9496000  1
   4975   4974   4976   4977     1  180.0000771  9.6232000  2
   4979   4978   4981   4984     1  0.0000000  0.6508444  3
   4979   4978   4981   4982     1  0.0000000  0.6508444  3
   4979   4978   4981   4983     1  0.0000000  0.6508444  3
   4980   4978   4981   4984     1  0.0000000  0.6508444  3
   4980   4978   4981   4982     1  0.0000000  0.6508444  3
   4980   4978   4981   4983     1  0.0000000  0.6508444  3
   4981   4984   4986   4987     1  180.0000771  9.6232000  2
   4982   4981   4984   4985     1  0.0000000  3.3472000  1
   4982   4981   4984   4985     1  0.0000000  0.0000000  2
   4982   4981   4984   4985     1  180.0000771  0.3347200  3
   4982   4981   4984   4986     1  180.0000771  0.0000000  2
   4983   4981   4984   4985     1  0.0000000  3.3472000  1
   4983   4981   4984   4985     1  0.0000000  0.0000000  2
   4983   4981   4984   4985     1  180.0000771  0.3347200  3
   4983   4981   4984   4986     1  180.0000771  0.0000000  2
   4985   4984   4986   4987     1  0.0000000  7.9496000  1
   4985   4984   4986   4987     1  180.0000771  9.6232000  2
   4989   4992   4995   4996     1  0.0000000  0.6508444  3
   4989   4992   4995   4997     1  0.0000000  0.6508444  3
   4990   4989   4992   4995     1  0.0000000  0.6508444  3
   4990   4989   4992   4993     1  0.0000000  0.6508444  3
   4990   4989   4992   4994     1  0.0000000  0.6508444  3
   4991   4989   4992   4995     1  0.0000000  0.6508444  3
   4991   4989   4992   4993     1  0.0000000  0.6508444  3
   4991   4989   4992   4994     1  0.0000000  0.6508444  3
   4993   4992   4995   4998     1  0.0000000  0.6508444  3
   4993   4992   4995   4996     1  0.0000000  0.6508444  3
   4993   4992   4995   4997     1  0.0000000  0.6508444  3
   4993   4992   4989   5019     1  0.0000000  1.0460000  1
   4993   4992   4989   5019     1  0.0000000  0.0000000  3
   4994   4992   4995   4998     1  0.0000000  0.6508444  3
   4994   4992   4995   4996     1  0.0000000  0.6508444  3
   4994   4992   4995   4997     1  0.0000000  0.6508444  3
   4994   4992   4989   5019     1  0.0000000  1.0460000  1
   4994   4992   4989   5019     1  0.0000000  0.0000000  3
   4995   4998   4999   5000     1  0.0000000  1.2552000  3
   4995   4998   4999   5001     1  0.0000000  1.2552000  3
   4995   4998   5009   5010     1  0.0000000  1.2552000  3
   4995   4998   5009   5011     1  0.0000000  1.2552000  3
   4996   4995   4998   4999     1  0.0000000  1.2552000  3
   4996   4995   4998   5009     1  0.0000000  1.2552000  3
   4997   4995   4998   4999     1  0.0000000  1.2552000  3
   4997   4995   4998   5009     1  0.0000000  1.2552000  3
   4998   4999   5002   5003     1  0.0000000  0.6508444  3
   4998   4999   5002   5004     1  0.0000000  0.6508444  3
   4998   5009   5012   5013     1  0.0000000  0.6508444  3
   4998   5009   5012   5014     1  0.0000000  0.6508444  3
   4999   4998   5009   5010     1  0.0000000  1.2552000  3
   4999   4998   5009   5011     1  0.0000000  1.2552000  3
   5000   4999   5002   5005     1  0.0000000  0.6508444  3
   5000   4999   5002   5003     1  0.0000000  0.6508444  3
   5000   4999   5002   5004     1  0.0000000  0.6508444  3
   5000   4999   4998   5009     1  0.0000000  1.2552000  3
   5001   4999   5002   5005     1  0.0000000  0.6508444  3
   5001   4999   5002   5003     1  0.0000000  0.6508444  3
   5001   4999   5002   5004     1  0.0000000  0.6508444  3
   5001   4999   4998   5009     1  0.0000000  1.2552000  3
   5002   5005   5007   5008     1  180.0000771  9.6232000  2
   5003   5002   5005   5006     1  0.0000000  3.3472000  1
   5003   5002   5005   5006     1  0.0000000  0.0000000  2
   5003   5002   5005   5006     1  180.0000771  0.3347200  3
   5003   5002   5005   5007     1  180.0000771  0.0000000  2
   5004   5002   5005   5006     1  0.0000000  3.3472000  1
   5004   5002   5005   5006     1  0.0000000  0.0000000  2
   5004   5002   5005   5006     1  180.0000771  0.3347200  3
   5004   5002   5005   5007     1  180.0000771  0.0000000  2
   5006   5005   5007   5008     1  0.0000000  7.9496000  1
   5006   5005   5007   5008     1  180.0000771  9.6232000  2
   5010   5009   5012   5015     1  0.0000000  0.6508444  3
   5010   5009   5012   5013     1  0.0000000  0.6508444  3
   5010   5009   5012   5014     1  0.0000000  0.6508444  3
   5011   5009   5012   5015     1  0.0000000  0.6508444  3
   5011   5009   5012   5013     1  0.0000000  0.6508444  3
   5011   5009   5012   5014     1  0.0000000  0.6508444  3
   5012   5015   5017   5018     1  180.0000771  9.6232000  2
   5013   5012   5015   5016     1  0.0000000  3.3472000  1
   5013   5012   5015   5016     1  0.0000000  0.0000000  2
   5013   5012   5015   5016     1  180.0000771  0.3347200  3
   5013   5012   5015   5017     1  180.0000771  0.0000000  2
   5014   5012   5015   5016     1  0.0000000  3.3472000  1
   5014   5012   5015   5016     1  0.0000000  0.0000000  2
   5014   5012   5015   5016     1  180.0000771  0.3347200  3
   5014   5012   5015   5017     1  180.0000771  0.0000000  2
   5016   5015   5017   5018     1  0.0000000  7.9496000  1
   5016   5015   5017   5018     1  180.0000771  9.6232000  2
   5020   5023   5026   5027     1  0.0000000  0.6508444  3
   5020   5023   5026   5028     1  0.0000000  0.6508444  3
   5021   5020   5023   5026     1  0.0000000  0.6508444  3
   5021   5020   5023   5024     1  0.0000000  0.6508444  3
   5021   5020   5023   5025     1  0.0000000  0.6508444  3
   5022   5020   5023   5026     1  0.0000000  0.6508444  3
   5022   5020   5023   5024     1  0.0000000  0.6508444  3
   5022   5020   5023   5025     1  0.0000000  0.6508444  3
   5024   5023   5020   5050     1  0.0000000  1.0460000  1
   5024   5023   5020   5050     1  0.0000000  0.0000000  3
   5024   5023   5026   5029     1  0.0000000  0.6508444  3
   5024   5023   5026   5027     1  0.0000000  0.6508444  3
   5024   5023   5026   5028     1  0.0000000  0.6508444  3
   5025   5023   5020   5050     1  0.0000000  1.0460000  1
   5025   5023   5020   5050     1  0.0000000  0.0000000  3
   5025   5023   5026   5029     1  0.0000000  0.6508444  3
   5025   5023   5026   5027     1  0.0000000  0.6508444  3
   5025   5023   5026   5028     1  0.0000000  0.6508444  3
   5026   5029   5030   5031     1  0.0000000  1.2552000  3
   5026   5029   5030   5032     1  0.0000000  1.2552000  3
   5026   5029   5040   5041     1  0.0000000  1.2552000  3
   5026   5029   5040   5042     1  0.0000000  1.2552000  3
   5027   5026   5029   5030     1  0.0000000  1.2552000  3
   5027   5026   5029   5040     1  0.0000000  1.2552000  3
   5028   5026   5029   5030     1  0.0000000  1.2552000  3
   5028   5026   5029   5040     1  0.0000000  1.2552000  3
   5029   5030   5033   5034     1  0.0000000  0.6508444  3
   5029   5030   5033   5035     1  0.0000000  0.6508444  3
   5029   5040   5043   5044     1  0.0000000  0.6508444  3
   5029   5040   5043   5045     1  0.0000000  0.6508444  3
   5030   5029   5040   5041     1  0.0000000  1.2552000  3
   5030   5029   5040   5042     1  0.0000000  1.2552000  3
   5031   5030   5029   5040     1  0.0000000  1.2552000  3
   5031   5030   5033   5036     1  0.0000000  0.6508444  3
   5031   5030   5033   5034     1  0.0000000  0.6508444  3
   5031   5030   5033   5035     1  0.0000000  0.6508444  3
   5032   5030   5029   5040     1  0.0000000  1.2552000  3
   5032   5030   5033   5036     1  0.0000000  0.6508444  3
   5032   5030   5033   5034     1  0.0000000  0.6508444  3
   5032   5030   5033   5035     1  0.0000000  0.6508444  3
   5033   5036   5038   5039     1  180.0000771  9.6232000  2
   5034   5033   5036   5037     1  0.0000000  3.3472000  1
   5034   5033   5036   5037     1  0.0000000  0.0000000  2
   5034   5033   5036   5037     1  180.0000771  0.3347200  3
   5034   5033   5036   5038     1  180.0000771  0.0000000  2
   5035   5033   5036   5037     1  0.0000000  3.3472000  1
   5035   5033   5036   5037     1  0.0000000  0.0000000  2
   5035   5033   5036   5037     1  180.0000771  0.3347200  3
   5035   5033   5036   5038     1  180.0000771  0.0000000  2
   5037   5036   5038   5039     1  0.0000000  7.9496000  1
   5037   5036   5038   5039     1  180.0000771  9.6232000  2
   5041   5040   5043   5046     1  0.0000000  0.6508444  3
   5041   5040   5043   5044     1  0.0000000  0.6508444  3
   5041   5040   5043   5045     1  0.0000000  0.6508444  3
   5042   5040   5043   5046     1  0.0000000  0.6508444  3
   5042   5040   5043   5044     1  0.0000000  0.6508444  3
   5042   5040   5043   5045     1  0.0000000  0.6508444  3
   5043   5046   5048   5049     1  180.0000771  9.6232000  2
   5044   5043   5046   5047     1  0.0000000  3.3472000  1
   5044   5043   5046   5047     1  0.0000000  0.0000000  2
   5044   5043   5046   5047     1  180.0000771  0.3347200  3
   5044   5043   5046   5048     1  180.0000771  0.0000000  2
   5045   5043   5046   5047     1  0.0000000  3.3472000  1
   5045   5043   5046   5047     1  0.0000000  0.0000000  2
   5045   5043   5046   5047     1  180.0000771  0.3347200  3
   5045   5043   5046   5048     1  180.0000771  0.0000000  2
   5047   5046   5048   5049     1  0.0000000  7.9496000  1
   5047   5046   5048   5049     1  180.0000771  9.6232000  2
   5051   5054   5057   5058     1  0.0000000  0.6508444  3
   5051   5054   5057   5059     1  0.0000000  0.6508444  3
   5052   5051   5054   5057     1  0.0000000  0.6508444  3
   5052   5051   5054   5055     1  0.0000000  0.6508444  3
   5052   5051   5054   5056     1  0.0000000  0.6508444  3
   5053   5051   5054   5057     1  0.0000000  0.6508444  3
   5053   5051   5054   5055     1  0.0000000  0.6508444  3
   5053   5051   5054   5056     1  0.0000000  0.6508444  3
   5055   5054   5057   5060     1  0.0000000  0.6508444  3
   5055   5054   5057   5058     1  0.0000000  0.6508444  3
   5055   5054   5057   5059     1  0.0000000  0.6508444  3
   5055   5054   5051   5081     1  0.0000000  1.0460000  1
   5055   5054   5051   5081     1  0.0000000  0.0000000  3
   5056   5054   5057   5060     1  0.0000000  0.6508444  3
   5056   5054   5057   5058     1  0.0000000  0.6508444  3
   5056   5054   5057   5059     1  0.0000000  0.6508444  3
   5056   5054   5051   5081     1  0.0000000  1.0460000  1
   5056   5054   5051   5081     1  0.0000000  0.0000000  3
   5057   5060   5061   5062     1  0.0000000  1.2552000  3
   5057   5060   5061   5063     1  0.0000000  1.2552000  3
   5057   5060   5071   5072     1  0.0000000  1.2552000  3
   5057   5060   5071   5073     1  0.0000000  1.2552000  3
   5058   5057   5060   5061     1  0.0000000  1.2552000  3
   5058   5057   5060   5071     1  0.0000000  1.2552000  3
   5059   5057   5060   5061     1  0.0000000  1.2552000  3
   5059   5057   5060   5071     1  0.0000000  1.2552000  3
   5060   5061   5064   5065     1  0.0000000  0.6508444  3
   5060   5061   5064   5066     1  0.0000000  0.6508444  3
   5060   5071   5074   5075     1  0.0000000  0.6508444  3
   5060   5071   5074   5076     1  0.0000000  0.6508444  3
   5061   5060   5071   5072     1  0.0000000  1.2552000  3
   5061   5060   5071   5073     1  0.0000000  1.2552000  3
   5062   5061   5064   5067     1  0.0000000  0.6508444  3
   5062   5061   5064   5065     1  0.0000000  0.6508444  3
   5062   5061   5064   5066     1  0.0000000  0.6508444  3
   5062   5061   5060   5071     1  0.0000000  1.2552000  3
   5063   5061   5064   5067     1  0.0000000  0.6508444  3
   5063   5061   5064   5065     1  0.0000000  0.6508444  3
   5063   5061   5064   5066     1  0.0000000  0.6508444  3
   5063   5061   5060   5071     1  0.0000000  1.2552000  3
   5064   5067   5069   5070     1  180.0000771  9.6232000  2
   5065   5064   5067   5068     1  0.0000000  3.3472000  1
   5065   5064   5067   5068     1  0.0000000  0.0000000  2
   5065   5064   5067   5068     1  180.0000771  0.3347200  3
   5065   5064   5067   5069     1  180.0000771  0.0000000  2
   5066   5064   5067   5068     1  0.0000000  3.3472000  1
   5066   5064   5067   5068     1  0.0000000  0.0000000  2
   5066   5064   5067   5068     1  180.0000771  0.3347200  3
   5066   5064   5067   5069     1  180.0000771  0.0000000  2
   5068   5067   5069   5070     1  0.0000000  7.9496000  1
   5068   5067   5069   5070     1  180.0000771  9.6232000  2
   5072   5071   5074   5077     1  0.0000000  0.6508444  3
   5072   5071   5074   5075     1  0.0000000  0.6508444  3
   5072   5071   5074   5076     1  0.0000000  0.6508444  3
   5073   5071   5074   5077     1  0.0000000  0.6508444  3
   5073   5071   5074   5075     1  0.0000000  0.6508444  3
   5073   5071   5074   5076     1  0.0000000  0.6508444  3
   5074   5077   5079   5080     1  180.0000771  9.6232000  2
   5075   5074   5077   5078     1  0.0000000  3.3472000  1
   5075   5074   5077   5078     1  0.0000000  0.0000000  2
   5075   5074   5077   5078     1  180.0000771  0.3347200  3
   5075   5074   5077   5079     1  180.0000771  0.0000000  2
   5076   5074   5077   5078     1  0.0000000  3.3472000  1
   5076   5074   5077   5078     1  0.0000000  0.0000000  2
   5076   5074   5077   5078     1  180.0000771  0.3347200  3
   5076   5074   5077   5079     1  180.0000771  0.0000000  2
   5078   5077   5079   5080     1  0.0000000  7.9496000  1
   5078   5077   5079   5080     1  180.0000771  9.6232000  2
   5082   5085   5088   5089     1  0.0000000  0.6508444  3
   5082   5085   5088   5090     1  0.0000000  0.6508444  3
   5083   5082   5085   5088     1  0.0000000  0.6508444  3
   5083   5082   5085   5086     1  0.0000000  0.6508444  3
   5083   5082   5085   5087     1  0.0000000  0.6508444  3
   5084   5082   5085   5088     1  0.0000000  0.6508444  3
   5084   5082   5085   5086     1  0.0000000  0.6508444  3
   5084   5082   5085   5087     1  0.0000000  0.6508444  3
   5086   5085   5082   5112     1  0.0000000  1.0460000  1
   5086   5085   5082   5112     1  0.0000000  0.0000000  3
   5086   5085   5088   5091     1  0.0000000  0.6508444  3
   5086   5085   5088   5089     1  0.0000000  0.6508444  3
   5086   5085   5088   5090     1  0.0000000  0.6508444  3
   5087   5085   5082   5112     1  0.0000000  1.0460000  1
   5087   5085   5082   5112     1  0.0000000  0.0000000  3
   5087   5085   5088   5091     1  0.0000000  0.6508444  3
   5087   5085   5088   5089     1  0.0000000  0.6508444  3
   5087   5085   5088   5090     1  0.0000000  0.6508444  3
   5088   5091   5092   5093     1  0.0000000  1.2552000  3
   5088   5091   5092   5094     1  0.0000000  1.2552000  3
   5088   5091   5102   5103     1  0.0000000  1.2552000  3
   5088   5091   5102   5104     1  0.0000000  1.2552000  3
   5089   5088   5091   5092     1  0.0000000  1.2552000  3
   5089   5088   5091   5102     1  0.0000000  1.2552000  3
   5090   5088   5091   5092     1  0.0000000  1.2552000  3
   5090   5088   5091   5102     1  0.0000000  1.2552000  3
   5091   5092   5095   5096     1  0.0000000  0.6508444  3
   5091   5092   5095   5097     1  0.0000000  0.6508444  3
   5091   5102   5105   5106     1  0.0000000  0.6508444  3
   5091   5102   5105   5107     1  0.0000000  0.6508444  3
   5092   5091   5102   5103     1  0.0000000  1.2552000  3
   5092   5091   5102   5104     1  0.0000000  1.2552000  3
   5093   5092   5091   5102     1  0.0000000  1.2552000  3
   5093   5092   5095   5098     1  0.0000000  0.6508444  3
   5093   5092   5095   5096     1  0.0000000  0.6508444  3
   5093   5092   5095   5097     1  0.0000000  0.6508444  3
   5094   5092   5091   5102     1  0.0000000  1.2552000  3
   5094   5092   5095   5098     1  0.0000000  0.6508444  3
   5094   5092   5095   5096     1  0.0000000  0.6508444  3
   5094   5092   5095   5097     1  0.0000000  0.6508444  3
   5095   5098   5100   5101     1  180.0000771  9.6232000  2
   5096   5095   5098   5099     1  0.0000000  3.3472000  1
   5096   5095   5098   5099     1  0.0000000  0.0000000  2
   5096   5095   5098   5099     1  180.0000771  0.3347200  3
   5096   5095   5098   5100     1  180.0000771  0.0000000  2
   5097   5095   5098   5099     1  0.0000000  3.3472000  1
   5097   5095   5098   5099     1  0.0000000  0.0000000  2
   5097   5095   5098   5099     1  180.0000771  0.3347200  3
   5097   5095   5098   5100     1  180.0000771  0.0000000  2
   5099   5098   5100   5101     1  0.0000000  7.9496000  1
   5099   5098   5100   5101     1  180.0000771  9.6232000  2
   5103   5102   5105   5108     1  0.0000000  0.6508444  3
   5103   5102   5105   5106     1  0.0000000  0.6508444  3
   5103   5102   5105   5107     1  0.0000000  0.6508444  3
   5104   5102   5105   5108     1  0.0000000  0.6508444  3
   5104   5102   5105   5106     1  0.0000000  0.6508444  3
   5104   5102   5105   5107     1  0.0000000  0.6508444  3
   5105   5108   5110   5111     1  180.0000771  9.6232000  2
   5106   5105   5108   5109     1  0.0000000  3.3472000  1
   5106   5105   5108   5109     1  0.0000000  0.0000000  2
   5106   5105   5108   5109     1  180.0000771  0.3347200  3
   5106   5105   5108   5110     1  180.0000771  0.0000000  2
   5107   5105   5108   5109     1  0.0000000  3.3472000  1
   5107   5105   5108   5109     1  0.0000000  0.0000000  2
   5107   5105   5108   5109     1  180.0000771  0.3347200  3
   5107   5105   5108   5110     1  180.0000771  0.0000000  2
   5109   5108   5110   5111     1  0.0000000  7.9496000  1
   5109   5108   5110   5111     1  180.0000771  9.6232000  2
   5113   5116   5119   5120     1  0.0000000  0.6508444  3
   5113   5116   5119   5121     1  0.0000000  0.6508444  3
   5114   5113   5116   5119     1  0.0000000  0.6508444  3
   5114   5113   5116   5117     1  0.0000000  0.6508444  3
   5114   5113   5116   5118     1  0.0000000  0.6508444  3
   5115   5113   5116   5119     1  0.0000000  0.6508444  3
   5115   5113   5116   5117     1  0.0000000  0.6508444  3
   5115   5113   5116   5118     1  0.0000000  0.6508444  3
   5117   5116   5119   5122     1  0.0000000  0.6508444  3
   5117   5116   5119   5120     1  0.0000000  0.6508444  3
   5117   5116   5119   5121     1  0.0000000  0.6508444  3
   5117   5116   5113   5143     1  0.0000000  1.0460000  1
   5117   5116   5113   5143     1  0.0000000  0.0000000  3
   5118   5116   5119   5122     1  0.0000000  0.6508444  3
   5118   5116   5119   5120     1  0.0000000  0.6508444  3
   5118   5116   5119   5121     1  0.0000000  0.6508444  3
   5118   5116   5113   5143     1  0.0000000  1.0460000  1
   5118   5116   5113   5143     1  0.0000000  0.0000000  3
   5119   5122   5123   5124     1  0.0000000  1.2552000  3
   5119   5122   5123   5125     1  0.0000000  1.2552000  3
   5119   5122   5133   5134     1  0.0000000  1.2552000  3
   5119   5122   5133   5135     1  0.0000000  1.2552000  3
   5120   5119   5122   5123     1  0.0000000  1.2552000  3
   5120   5119   5122   5133     1  0.0000000  1.2552000  3
   5121   5119   5122   5123     1  0.0000000  1.2552000  3
   5121   5119   5122   5133     1  0.0000000  1.2552000  3
   5122   5123   5126   5127     1  0.0000000  0.6508444  3
   5122   5123   5126   5128     1  0.0000000  0.6508444  3
   5122   5133   5136   5137     1  0.0000000  0.6508444  3
   5122   5133   5136   5138     1  0.0000000  0.6508444  3
   5123   5122   5133   5134     1  0.0000000  1.2552000  3
   5123   5122   5133   5135     1  0.0000000  1.2552000  3
   5124   5123   5126   5129     1  0.0000000  0.6508444  3
   5124   5123   5126   5127     1  0.0000000  0.6508444  3
   5124   5123   5126   5128     1  0.0000000  0.6508444  3
   5124   5123   5122   5133     1  0.0000000  1.2552000  3
   5125   5123   5126   5129     1  0.0000000  0.6508444  3
   5125   5123   5126   5127     1  0.0000000  0.6508444  3
   5125   5123   5126   5128     1  0.0000000  0.6508444  3
   5125   5123   5122   5133     1  0.0000000  1.2552000  3
   5126   5129   5131   5132     1  180.0000771  9.6232000  2
   5127   5126   5129   5130     1  0.0000000  3.3472000  1
   5127   5126   5129   5130     1  0.0000000  0.0000000  2
   5127   5126   5129   5130     1  180.0000771  0.3347200  3
   5127   5126   5129   5131     1  180.0000771  0.0000000  2
   5128   5126   5129   5130     1  0.0000000  3.3472000  1
   5128   5126   5129   5130     1  0.0000000  0.0000000  2
   5128   5126   5129   5130     1  180.0000771  0.3347200  3
   5128   5126   5129   5131     1  180.0000771  0.0000000  2
   5130   5129   5131   5132     1  0.0000000  7.9496000  1
   5130   5129   5131   5132     1  180.0000771  9.6232000  2
   5134   5133   5136   5139     1  0.0000000  0.6508444  3
   5134   5133   5136   5137     1  0.0000000  0.6508444  3
   5134   5133   5136   5138     1  0.0000000  0.6508444  3
   5135   5133   5136   5139     1  0.0000000  0.6508444  3
   5135   5133   5136   5137     1  0.0000000  0.6508444  3
   5135   5133   5136   5138     1  0.0000000  0.6508444  3
   5136   5139   5141   5142     1  180.0000771  9.6232000  2
   5137   5136   5139   5140     1  0.0000000  3.3472000  1
   5137   5136   5139   5140     1  0.0000000  0.0000000  2
   5137   5136   5139   5140     1  180.0000771  0.3347200  3
   5137   5136   5139   5141     1  180.0000771  0.0000000  2
   5138   5136   5139   5140     1  0.0000000  3.3472000  1
   5138   5136   5139   5140     1  0.0000000  0.0000000  2
   5138   5136   5139   5140     1  180.0000771  0.3347200  3
   5138   5136   5139   5141     1  180.0000771  0.0000000  2
   5140   5139   5141   5142     1  0.0000000  7.9496000  1
   5140   5139   5141   5142     1  180.0000771  9.6232000  2
   5144   5147   5150   5151     1  0.0000000  0.6508444  3
   5144   5147   5150   5152     1  0.0000000  0.6508444  3
   5145   5144   5147   5150     1  0.0000000  0.6508444  3
   5145   5144   5147   5148     1  0.0000000  0.6508444  3
   5145   5144   5147   5149     1  0.0000000  0.6508444  3
   5146   5144   5147   5150     1  0.0000000  0.6508444  3
   5146   5144   5147   5148     1  0.0000000  0.6508444  3
   5146   5144   5147   5149     1  0.0000000  0.6508444  3
   5148   5147   5144   5174     1  0.0000000  1.0460000  1
   5148   5147   5144   5174     1  0.0000000  0.0000000  3
   5148   5147   5150   5153     1  0.0000000  0.6508444  3
   5148   5147   5150   5151     1  0.0000000  0.6508444  3
   5148   5147   5150   5152     1  0.0000000  0.6508444  3
   5149   5147   5144   5174     1  0.0000000  1.0460000  1
   5149   5147   5144   5174     1  0.0000000  0.0000000  3
   5149   5147   5150   5153     1  0.0000000  0.6508444  3
   5149   5147   5150   5151     1  0.0000000  0.6508444  3
   5149   5147   5150   5152     1  0.0000000  0.6508444  3
   5150   5153   5154   5155     1  0.0000000  1.2552000  3
   5150   5153   5154   5156     1  0.0000000  1.2552000  3
   5150   5153   5164   5165     1  0.0000000  1.2552000  3
   5150   5153   5164   5166     1  0.0000000  1.2552000  3
   5151   5150   5153   5154     1  0.0000000  1.2552000  3
   5151   5150   5153   5164     1  0.0000000  1.2552000  3
   5152   5150   5153   5154     1  0.0000000  1.2552000  3
   5152   5150   5153   5164     1  0.0000000  1.2552000  3
   5153   5154   5157   5158     1  0.0000000  0.6508444  3
   5153   5154   5157   5159     1  0.0000000  0.6508444  3
   5153   5164   5167   5168     1  0.0000000  0.6508444  3
   5153   5164   5167   5169     1  0.0000000  0.6508444  3
   5154   5153   5164   5165     1  0.0000000  1.2552000  3
   5154   5153   5164   5166     1  0.0000000  1.2552000  3
   5155   5154   5153   5164     1  0.0000000  1.2552000  3
   5155   5154   5157   5160     1  0.0000000  0.6508444  3
   5155   5154   5157   5158     1  0.0000000  0.6508444  3
   5155   5154   5157   5159     1  0.0000000  0.6508444  3
   5156   5154   5153   5164     1  0.0000000  1.2552000  3
   5156   5154   5157   5160     1  0.0000000  0.6508444  3
   5156   5154   5157   5158     1  0.0000000  0.6508444  3
   5156   5154   5157   5159     1  0.0000000  0.6508444  3
   5157   5160   5162   5163     1  180.0000771  9.6232000  2
   5158   5157   5160   5161     1  0.0000000  3.3472000  1
   5158   5157   5160   5161     1  0.0000000  0.0000000  2
   5158   5157   5160   5161     1  180.0000771  0.3347200  3
   5158   5157   5160   5162     1  180.0000771  0.0000000  2
   5159   5157   5160   5161     1  0.0000000  3.3472000  1
   5159   5157   5160   5161     1  0.0000000  0.0000000  2
   5159   5157   5160   5161     1  180.0000771  0.3347200  3
   5159   5157   5160   5162     1  180.0000771  0.0000000  2
   5161   5160   5162   5163     1  0.0000000  7.9496000  1
   5161   5160   5162   5163     1  180.0000771  9.6232000  2
   5165   5164   5167   5170     1  0.0000000  0.6508444  3
   5165   5164   5167   5168     1  0.0000000  0.6508444  3
   5165   5164   5167   5169     1  0.0000000  0.6508444  3
   5166   5164   5167   5170     1  0.0000000  0.6508444  3
   5166   5164   5167   5168     1  0.0000000  0.6508444  3
   5166   5164   5167   5169     1  0.0000000  0.6508444  3
   5167   5170   5172   5173     1  180.0000771  9.6232000  2
   5168   5167   5170   5171     1  0.0000000  3.3472000  1
   5168   5167   5170   5171     1  0.0000000  0.0000000  2
   5168   5167   5170   5171     1  180.0000771  0.3347200  3
   5168   5167   5170   5172     1  180.0000771  0.0000000  2
   5169   5167   5170   5171     1  0.0000000  3.3472000  1
   5169   5167   5170   5171     1  0.0000000  0.0000000  2
   5169   5167   5170   5171     1  180.0000771  0.3347200  3
   5169   5167   5170   5172     1  180.0000771  0.0000000  2
   5171   5170   5172   5173     1  0.0000000  7.9496000  1
   5171   5170   5172   5173     1  180.0000771  9.6232000  2
   5175   5178   5181   5182     1  0.0000000  0.6508444  3
   5175   5178   5181   5183     1  0.0000000  0.6508444  3
   5176   5175   5178   5181     1  0.0000000  0.6508444  3
   5176   5175   5178   5179     1  0.0000000  0.6508444  3
   5176   5175   5178   5180     1  0.0000000  0.6508444  3
   5177   5175   5178   5181     1  0.0000000  0.6508444  3
   5177   5175   5178   5179     1  0.0000000  0.6508444  3
   5177   5175   5178   5180     1  0.0000000  0.6508444  3
   5179   5178   5181   5184     1  0.0000000  0.6508444  3
   5179   5178   5181   5182     1  0.0000000  0.6508444  3
   5179   5178   5181   5183     1  0.0000000  0.6508444  3
   5179   5178   5175   5205     1  0.0000000  1.0460000  1
   5179   5178   5175   5205     1  0.0000000  0.0000000  3
   5180   5178   5181   5184     1  0.0000000  0.6508444  3
   5180   5178   5181   5182     1  0.0000000  0.6508444  3
   5180   5178   5181   5183     1  0.0000000  0.6508444  3
   5180   5178   5175   5205     1  0.0000000  1.0460000  1
   5180   5178   5175   5205     1  0.0000000  0.0000000  3
   5181   5184   5185   5186     1  0.0000000  1.2552000  3
   5181   5184   5185   5187     1  0.0000000  1.2552000  3
   5181   5184   5195   5196     1  0.0000000  1.2552000  3
   5181   5184   5195   5197     1  0.0000000  1.2552000  3
   5182   5181   5184   5185     1  0.0000000  1.2552000  3
   5182   5181   5184   5195     1  0.0000000  1.2552000  3
   5183   5181   5184   5185     1  0.0000000  1.2552000  3
   5183   5181   5184   5195     1  0.0000000  1.2552000  3
   5184   5185   5188   5189     1  0.0000000  0.6508444  3
   5184   5185   5188   5190     1  0.0000000  0.6508444  3
   5184   5195   5198   5199     1  0.0000000  0.6508444  3
   5184   5195   5198   5200     1  0.0000000  0.6508444  3
   5185   5184   5195   5196     1  0.0000000  1.2552000  3
   5185   5184   5195   5197     1  0.0000000  1.2552000  3
   5186   5185   5188   5191     1  0.0000000  0.6508444  3
   5186   5185   5188   5189     1  0.0000000  0.6508444  3
   5186   5185   5188   5190     1  0.0000000  0.6508444  3
   5186   5185   5184   5195     1  0.0000000  1.2552000  3
   5187   5185   5188   5191     1  0.0000000  0.6508444  3
   5187   5185   5188   5189     1  0.0000000  0.6508444  3
   5187   5185   5188   5190     1  0.0000000  0.6508444  3
   5187   5185   5184   5195     1  0.0000000  1.2552000  3
   5188   5191   5193   5194     1  180.0000771  9.6232000  2
   5189   5188   5191   5192     1  0.0000000  3.3472000  1
   5189   5188   5191   5192     1  0.0000000  0.0000000  2
   5189   5188   5191   5192     1  180.0000771  0.3347200  3
   5189   5188   5191   5193     1  180.0000771  0.0000000  2
   5190   5188   5191   5192     1  0.0000000  3.3472000  1
   5190   5188   5191   5192     1  0.0000000  0.0000000  2
   5190   5188   5191   5192     1  180.0000771  0.3347200  3
   5190   5188   5191   5193     1  180.0000771  0.0000000  2
   5192   5191   5193   5194     1  0.0000000  7.9496000  1
   5192   5191   5193   5194     1  180.0000771  9.6232000  2
   5196   5195   5198   5201     1  0.0000000  0.6508444  3
   5196   5195   5198   5199     1  0.0000000  0.6508444  3
   5196   5195   5198   5200     1  0.0000000  0.6508444  3
   5197   5195   5198   5201     1  0.0000000  0.6508444  3
   5197   5195   5198   5199     1  0.0000000  0.6508444  3
   5197   5195   5198   5200     1  0.0000000  0.6508444  3
   5198   5201   5203   5204     1  180.0000771  9.6232000  2
   5199   5198   5201   5202     1  0.0000000  3.3472000  1
   5199   5198   5201   5202     1  0.0000000  0.0000000  2
   5199   5198   5201   5202     1  180.0000771  0.3347200  3
   5199   5198   5201   5203     1  180.0000771  0.0000000  2
   5200   5198   5201   5202     1  0.0000000  3.3472000  1
   5200   5198   5201   5202     1  0.0000000  0.0000000  2
   5200   5198   5201   5202     1  180.0000771  0.3347200  3
   5200   5198   5201   5203     1  180.0000771  0.0000000  2
   5202   5201   5203   5204     1  0.0000000  7.9496000  1
   5202   5201   5203   5204     1  180.0000771  9.6232000  2
   5206   5209   5212   5213     1  0.0000000  0.6508444  3
   5206   5209   5212   5214     1  0.0000000  0.6508444  3
   5207   5206   5209   5212     1  0.0000000  0.6508444  3
   5207   5206   5209   5210     1  0.0000000  0.6508444  3
   5207   5206   5209   5211     1  0.0000000  0.6508444  3
   5208   5206   5209   5212     1  0.0000000  0.6508444  3
   5208   5206   5209   5210     1  0.0000000  0.6508444  3
   5208   5206   5209   5211     1  0.0000000  0.6508444  3
   5210   5209   5206   5236     1  0.0000000  1.0460000  1
   5210   5209   5206   5236     1  0.0000000  0.0000000  3
   5210   5209   5212   5215     1  0.0000000  0.6508444  3
   5210   5209   5212   5213     1  0.0000000  0.6508444  3
   5210   5209   5212   5214     1  0.0000000  0.6508444  3
   5211   5209   5206   5236     1  0.0000000  1.0460000  1
   5211   5209   5206   5236     1  0.0000000  0.0000000  3
   5211   5209   5212   5215     1  0.0000000  0.6508444  3
   5211   5209   5212   5213     1  0.0000000  0.6508444  3
   5211   5209   5212   5214     1  0.0000000  0.6508444  3
   5212   5215   5216   5217     1  0.0000000  1.2552000  3
   5212   5215   5216   5218     1  0.0000000  1.2552000  3
   5212   5215   5226   5227     1  0.0000000  1.2552000  3
   5212   5215   5226   5228     1  0.0000000  1.2552000  3
   5213   5212   5215   5216     1  0.0000000  1.2552000  3
   5213   5212   5215   5226     1  0.0000000  1.2552000  3
   5214   5212   5215   5216     1  0.0000000  1.2552000  3
   5214   5212   5215   5226     1  0.0000000  1.2552000  3
   5215   5216   5219   5220     1  0.0000000  0.6508444  3
   5215   5216   5219   5221     1  0.0000000  0.6508444  3
   5215   5226   5229   5230     1  0.0000000  0.6508444  3
   5215   5226   5229   5231     1  0.0000000  0.6508444  3
   5216   5215   5226   5227     1  0.0000000  1.2552000  3
   5216   5215   5226   5228     1  0.0000000  1.2552000  3
   5217   5216   5215   5226     1  0.0000000  1.2552000  3
   5217   5216   5219   5222     1  0.0000000  0.6508444  3
   5217   5216   5219   5220     1  0.0000000  0.6508444  3
   5217   5216   5219   5221     1  0.0000000  0.6508444  3
   5218   5216   5215   5226     1  0.0000000  1.2552000  3
   5218   5216   5219   5222     1  0.0000000  0.6508444  3
   5218   5216   5219   5220     1  0.0000000  0.6508444  3
   5218   5216   5219   5221     1  0.0000000  0.6508444  3
   5219   5222   5224   5225     1  180.0000771  9.6232000  2
   5220   5219   5222   5223     1  0.0000000  3.3472000  1
   5220   5219   5222   5223     1  0.0000000  0.0000000  2
   5220   5219   5222   5223     1  180.0000771  0.3347200  3
   5220   5219   5222   5224     1  180.0000771  0.0000000  2
   5221   5219   5222   5223     1  0.0000000  3.3472000  1
   5221   5219   5222   5223     1  0.0000000  0.0000000  2
   5221   5219   5222   5223     1  180.0000771  0.3347200  3
   5221   5219   5222   5224     1  180.0000771  0.0000000  2
   5223   5222   5224   5225     1  0.0000000  7.9496000  1
   5223   5222   5224   5225     1  180.0000771  9.6232000  2
   5227   5226   5229   5232     1  0.0000000  0.6508444  3
   5227   5226   5229   5230     1  0.0000000  0.6508444  3
   5227   5226   5229   5231     1  0.0000000  0.6508444  3
   5228   5226   5229   5232     1  0.0000000  0.6508444  3
   5228   5226   5229   5230     1  0.0000000  0.6508444  3
   5228   5226   5229   5231     1  0.0000000  0.6508444  3
   5229   5232   5234   5235     1  180.0000771  9.6232000  2
   5230   5229   5232   5233     1  0.0000000  3.3472000  1
   5230   5229   5232   5233     1  0.0000000  0.0000000  2
   5230   5229   5232   5233     1  180.0000771  0.3347200  3
   5230   5229   5232   5234     1  180.0000771  0.0000000  2
   5231   5229   5232   5233     1  0.0000000  3.3472000  1
   5231   5229   5232   5233     1  0.0000000  0.0000000  2
   5231   5229   5232   5233     1  180.0000771  0.3347200  3
   5231   5229   5232   5234     1  180.0000771  0.0000000  2
   5233   5232   5234   5235     1  0.0000000  7.9496000  1
   5233   5232   5234   5235     1  180.0000771  9.6232000  2
   5237   5240   5243   5244     1  0.0000000  0.6508444  3
   5237   5240   5243   5245     1  0.0000000  0.6508444  3
   5238   5237   5240   5243     1  0.0000000  0.6508444  3
   5238   5237   5240   5241     1  0.0000000  0.6508444  3
   5238   5237   5240   5242     1  0.0000000  0.6508444  3
   5239   5237   5240   5243     1  0.0000000  0.6508444  3
   5239   5237   5240   5241     1  0.0000000  0.6508444  3
   5239   5237   5240   5242     1  0.0000000  0.6508444  3
   5241   5240   5243   5246     1  0.0000000  0.6508444  3
   5241   5240   5243   5244     1  0.0000000  0.6508444  3
   5241   5240   5243   5245     1  0.0000000  0.6508444  3
   5241   5240   5237   5267     1  0.0000000  1.0460000  1
   5241   5240   5237   5267     1  0.0000000  0.0000000  3
   5242   5240   5243   5246     1  0.0000000  0.6508444  3
   5242   5240   5243   5244     1  0.0000000  0.6508444  3
   5242   5240   5243   5245     1  0.0000000  0.6508444  3
   5242   5240   5237   5267     1  0.0000000  1.0460000  1
   5242   5240   5237   5267     1  0.0000000  0.0000000  3
   5243   5246   5247   5248     1  0.0000000  1.2552000  3
   5243   5246   5247   5249     1  0.0000000  1.2552000  3
   5243   5246   5257   5258     1  0.0000000  1.2552000  3
   5243   5246   5257   5259     1  0.0000000  1.2552000  3
   5244   5243   5246   5247     1  0.0000000  1.2552000  3
   5244   5243   5246   5257     1  0.0000000  1.2552000  3
   5245   5243   5246   5247     1  0.0000000  1.2552000  3
   5245   5243   5246   5257     1  0.0000000  1.2552000  3
   5246   5247   5250   5251     1  0.0000000  0.6508444  3
   5246   5247   5250   5252     1  0.0000000  0.6508444  3
   5246   5257   5260   5261     1  0.0000000  0.6508444  3
   5246   5257   5260   5262     1  0.0000000  0.6508444  3
   5247   5246   5257   5258     1  0.0000000  1.2552000  3
   5247   5246   5257   5259     1  0.0000000  1.2552000  3
   5248   5247   5250   5253     1  0.0000000  0.6508444  3
   5248   5247   5250   5251     1  0.0000000  0.6508444  3
   5248   5247   5250   5252     1  0.0000000  0.6508444  3
   5248   5247   5246   5257     1  0.0000000  1.2552000  3
   5249   5247   5250   5253     1  0.0000000  0.6508444  3
   5249   5247   5250   5251     1  0.0000000  0.6508444  3
   5249   5247   5250   5252     1  0.0000000  0.6508444  3
   5249   5247   5246   5257     1  0.0000000  1.2552000  3
   5250   5253   5255   5256     1  180.0000771  9.6232000  2
   5251   5250   5253   5254     1  0.0000000  3.3472000  1
   5251   5250   5253   5254     1  0.0000000  0.0000000  2
   5251   5250   5253   5254     1  180.0000771  0.3347200  3
   5251   5250   5253   5255     1  180.0000771  0.0000000  2
   5252   5250   5253   5254     1  0.0000000  3.3472000  1
   5252   5250   5253   5254     1  0.0000000  0.0000000  2
   5252   5250   5253   5254     1  180.0000771  0.3347200  3
   5252   5250   5253   5255     1  180.0000771  0.0000000  2
   5254   5253   5255   5256     1  0.0000000  7.9496000  1
   5254   5253   5255   5256     1  180.0000771  9.6232000  2
   5258   5257   5260   5263     1  0.0000000  0.6508444  3
   5258   5257   5260   5261     1  0.0000000  0.6508444  3
   5258   5257   5260   5262     1  0.0000000  0.6508444  3
   5259   5257   5260   5263     1  0.0000000  0.6508444  3
   5259   5257   5260   5261     1  0.0000000  0.6508444  3
   5259   5257   5260   5262     1  0.0000000  0.6508444  3
   5260   5263   5265   5266     1  180.0000771  9.6232000  2
   5261   5260   5263   5264     1  0.0000000  3.3472000  1
   5261   5260   5263   5264     1  0.0000000  0.0000000  2
   5261   5260   5263   5264     1  180.0000771  0.3347200  3
   5261   5260   5263   5265     1  180.0000771  0.0000000  2
   5262   5260   5263   5264     1  0.0000000  3.3472000  1
   5262   5260   5263   5264     1  0.0000000  0.0000000  2
   5262   5260   5263   5264     1  180.0000771  0.3347200  3
   5262   5260   5263   5265     1  180.0000771  0.0000000  2
   5264   5263   5265   5266     1  0.0000000  7.9496000  1
   5264   5263   5265   5266     1  180.0000771  9.6232000  2
   5268   5271   5274   5275     1  0.0000000  0.6508444  3
   5268   5271   5274   5276     1  0.0000000  0.6508444  3
   5269   5268   5271   5274     1  0.0000000  0.6508444  3
   5269   5268   5271   5272     1  0.0000000  0.6508444  3
   5269   5268   5271   5273     1  0.0000000  0.6508444  3
   5270   5268   5271   5274     1  0.0000000  0.6508444  3
   5270   5268   5271   5272     1  0.0000000  0.6508444  3
   5270   5268   5271   5273     1  0.0000000  0.6508444  3
   5272   5271   5268   5298     1  0.0000000  1.0460000  1
   5272   5271   5268   5298     1  0.0000000  0.0000000  3
   5272   5271   5274   5277     1  0.0000000  0.6508444  3
   5272   5271   5274   5275     1  0.0000000  0.6508444  3
   5272   5271   5274   5276     1  0.0000000  0.6508444  3
   5273   5271   5268   5298     1  0.0000000  1.0460000  1
   5273   5271   5268   5298     1  0.0000000  0.0000000  3
   5273   5271   5274   5277     1  0.0000000  0.6508444  3
   5273   5271   5274   5275     1  0.0000000  0.6508444  3
   5273   5271   5274   5276     1  0.0000000  0.6508444  3
   5274   5277   5278   5279     1  0.0000000  1.2552000  3
   5274   5277   5278   5280     1  0.0000000  1.2552000  3
   5274   5277   5288   5289     1  0.0000000  1.2552000  3
   5274   5277   5288   5290     1  0.0000000  1.2552000  3
   5275   5274   5277   5278     1  0.0000000  1.2552000  3
   5275   5274   5277   5288     1  0.0000000  1.2552000  3
   5276   5274   5277   5278     1  0.0000000  1.2552000  3
   5276   5274   5277   5288     1  0.0000000  1.2552000  3
   5277   5278   5281   5282     1  0.0000000  0.6508444  3
   5277   5278   5281   5283     1  0.0000000  0.6508444  3
   5277   5288   5291   5292     1  0.0000000  0.6508444  3
   5277   5288   5291   5293     1  0.0000000  0.6508444  3
   5278   5277   5288   5289     1  0.0000000  1.2552000  3
   5278   5277   5288   5290     1  0.0000000  1.2552000  3
   5279   5278   5277   5288     1  0.0000000  1.2552000  3
   5279   5278   5281   5284     1  0.0000000  0.6508444  3
   5279   5278   5281   5282     1  0.0000000  0.6508444  3
   5279   5278   5281   5283     1  0.0000000  0.6508444  3
   5280   5278   5277   5288     1  0.0000000  1.2552000  3
   5280   5278   5281   5284     1  0.0000000  0.6508444  3
   5280   5278   5281   5282     1  0.0000000  0.6508444  3
   5280   5278   5281   5283     1  0.0000000  0.6508444  3
   5281   5284   5286   5287     1  180.0000771  9.6232000  2
   5282   5281   5284   5285     1  0.0000000  3.3472000  1
   5282   5281   5284   5285     1  0.0000000  0.0000000  2
   5282   5281   5284   5285     1  180.0000771  0.3347200  3
   5282   5281   5284   5286     1  180.0000771  0.0000000  2
   5283   5281   5284   5285     1  0.0000000  3.3472000  1
   5283   5281   5284   5285     1  0.0000000  0.0000000  2
   5283   5281   5284   5285     1  180.0000771  0.3347200  3
   5283   5281   5284   5286     1  180.0000771  0.0000000  2
   5285   5284   5286   5287     1  0.0000000  7.9496000  1
   5285   5284   5286   5287     1  180.0000771  9.6232000  2
   5289   5288   5291   5294     1  0.0000000  0.6508444  3
   5289   5288   5291   5292     1  0.0000000  0.6508444  3
   5289   5288   5291   5293     1  0.0000000  0.6508444  3
   5290   5288   5291   5294     1  0.0000000  0.6508444  3
   5290   5288   5291   5292     1  0.0000000  0.6508444  3
   5290   5288   5291   5293     1  0.0000000  0.6508444  3
   5291   5294   5296   5297     1  180.0000771  9.6232000  2
   5292   5291   5294   5295     1  0.0000000  3.3472000  1
   5292   5291   5294   5295     1  0.0000000  0.0000000  2
   5292   5291   5294   5295     1  180.0000771  0.3347200  3
   5292   5291   5294   5296     1  180.0000771  0.0000000  2
   5293   5291   5294   5295     1  0.0000000  3.3472000  1
   5293   5291   5294   5295     1  0.0000000  0.0000000  2
   5293   5291   5294   5295     1  180.0000771  0.3347200  3
   5293   5291   5294   5296     1  180.0000771  0.0000000  2
   5295   5294   5296   5297     1  0.0000000  7.9496000  1
   5295   5294   5296   5297     1  180.0000771  9.6232000  2
   5299   5302   5305   5306     1  0.0000000  0.6508444  3
   5299   5302   5305   5307     1  0.0000000  0.6508444  3
   5300   5299   5302   5305     1  0.0000000  0.6508444  3
   5300   5299   5302   5303     1  0.0000000  0.6508444  3
   5300   5299   5302   5304     1  0.0000000  0.6508444  3
   5301   5299   5302   5305     1  0.0000000  0.6508444  3
   5301   5299   5302   5303     1  0.0000000  0.6508444  3
   5301   5299   5302   5304     1  0.0000000  0.6508444  3
   5303   5302   5305   5308     1  0.0000000  0.6508444  3
   5303   5302   5305   5306     1  0.0000000  0.6508444  3
   5303   5302   5305   5307     1  0.0000000  0.6508444  3
   5303   5302   5299   5329     1  0.0000000  1.0460000  1
   5303   5302   5299   5329     1  0.0000000  0.0000000  3
   5304   5302   5305   5308     1  0.0000000  0.6508444  3
   5304   5302   5305   5306     1  0.0000000  0.6508444  3
   5304   5302   5305   5307     1  0.0000000  0.6508444  3
   5304   5302   5299   5329     1  0.0000000  1.0460000  1
   5304   5302   5299   5329     1  0.0000000  0.0000000  3
   5305   5308   5309   5310     1  0.0000000  1.2552000  3
   5305   5308   5309   5311     1  0.0000000  1.2552000  3
   5305   5308   5319   5320     1  0.0000000  1.2552000  3
   5305   5308   5319   5321     1  0.0000000  1.2552000  3
   5306   5305   5308   5309     1  0.0000000  1.2552000  3
   5306   5305   5308   5319     1  0.0000000  1.2552000  3
   5307   5305   5308   5309     1  0.0000000  1.2552000  3
   5307   5305   5308   5319     1  0.0000000  1.2552000  3
   5308   5309   5312   5313     1  0.0000000  0.6508444  3
   5308   5309   5312   5314     1  0.0000000  0.6508444  3
   5308   5319   5322   5323     1  0.0000000  0.6508444  3
   5308   5319   5322   5324     1  0.0000000  0.6508444  3
   5309   5308   5319   5320     1  0.0000000  1.2552000  3
   5309   5308   5319   5321     1  0.0000000  1.2552000  3
   5310   5309   5312   5315     1  0.0000000  0.6508444  3
   5310   5309   5312   5313     1  0.0000000  0.6508444  3
   5310   5309   5312   5314     1  0.0000000  0.6508444  3
   5310   5309   5308   5319     1  0.0000000  1.2552000  3
   5311   5309   5312   5315     1  0.0000000  0.6508444  3
   5311   5309   5312   5313     1  0.0000000  0.6508444  3
   5311   5309   5312   5314     1  0.0000000  0.6508444  3
   5311   5309   5308   5319     1  0.0000000  1.2552000  3
   5312   5315   5317   5318     1  180.0000771  9.6232000  2
   5313   5312   5315   5316     1  0.0000000  3.3472000  1
   5313   5312   5315   5316     1  0.0000000  0.0000000  2
   5313   5312   5315   5316     1  180.0000771  0.3347200  3
   5313   5312   5315   5317     1  180.0000771  0.0000000  2
   5314   5312   5315   5316     1  0.0000000  3.3472000  1
   5314   5312   5315   5316     1  0.0000000  0.0000000  2
   5314   5312   5315   5316     1  180.0000771  0.3347200  3
   5314   5312   5315   5317     1  180.0000771  0.0000000  2
   5316   5315   5317   5318     1  0.0000000  7.9496000  1
   5316   5315   5317   5318     1  180.0000771  9.6232000  2
   5320   5319   5322   5325     1  0.0000000  0.6508444  3
   5320   5319   5322   5323     1  0.0000000  0.6508444  3
   5320   5319   5322   5324     1  0.0000000  0.6508444  3
   5321   5319   5322   5325     1  0.0000000  0.6508444  3
   5321   5319   5322   5323     1  0.0000000  0.6508444  3
   5321   5319   5322   5324     1  0.0000000  0.6508444  3
   5322   5325   5327   5328     1  180.0000771  9.6232000  2
   5323   5322   5325   5326     1  0.0000000  3.3472000  1
   5323   5322   5325   5326     1  0.0000000  0.0000000  2
   5323   5322   5325   5326     1  180.0000771  0.3347200  3
   5323   5322   5325   5327     1  180.0000771  0.0000000  2
   5324   5322   5325   5326     1  0.0000000  3.3472000  1
   5324   5322   5325   5326     1  0.0000000  0.0000000  2
   5324   5322   5325   5326     1  180.0000771  0.3347200  3
   5324   5322   5325   5327     1  180.0000771  0.0000000  2
   5326   5325   5327   5328     1  0.0000000  7.9496000  1
   5326   5325   5327   5328     1  180.0000771  9.6232000  2
   5330   5333   5336   5337     1  0.0000000  0.6508444  3
   5330   5333   5336   5338     1  0.0000000  0.6508444  3
   5331   5330   5333   5336     1  0.0000000  0.6508444  3
   5331   5330   5333   5334     1  0.0000000  0.6508444  3
   5331   5330   5333   5335     1  0.0000000  0.6508444  3
   5332   5330   5333   5336     1  0.0000000  0.6508444  3
   5332   5330   5333   5334     1  0.0000000  0.6508444  3
   5332   5330   5333   5335     1  0.0000000  0.6508444  3
   5334   5333   5330   5360     1  0.0000000  1.0460000  1
   5334   5333   5330   5360     1  0.0000000  0.0000000  3
   5334   5333   5336   5339     1  0.0000000  0.6508444  3
   5334   5333   5336   5337     1  0.0000000  0.6508444  3
   5334   5333   5336   5338     1  0.0000000  0.6508444  3
   5335   5333   5330   5360     1  0.0000000  1.0460000  1
   5335   5333   5330   5360     1  0.0000000  0.0000000  3
   5335   5333   5336   5339     1  0.0000000  0.6508444  3
   5335   5333   5336   5337     1  0.0000000  0.6508444  3
   5335   5333   5336   5338     1  0.0000000  0.6508444  3
   5336   5339   5340   5341     1  0.0000000  1.2552000  3
   5336   5339   5340   5342     1  0.0000000  1.2552000  3
   5336   5339   5350   5351     1  0.0000000  1.2552000  3
   5336   5339   5350   5352     1  0.0000000  1.2552000  3
   5337   5336   5339   5340     1  0.0000000  1.2552000  3
   5337   5336   5339   5350     1  0.0000000  1.2552000  3
   5338   5336   5339   5340     1  0.0000000  1.2552000  3
   5338   5336   5339   5350     1  0.0000000  1.2552000  3
   5339   5340   5343   5344     1  0.0000000  0.6508444  3
   5339   5340   5343   5345     1  0.0000000  0.6508444  3
   5339   5350   5353   5354     1  0.0000000  0.6508444  3
   5339   5350   5353   5355     1  0.0000000  0.6508444  3
   5340   5339   5350   5351     1  0.0000000  1.2552000  3
   5340   5339   5350   5352     1  0.0000000  1.2552000  3
   5341   5340   5339   5350     1  0.0000000  1.2552000  3
   5341   5340   5343   5346     1  0.0000000  0.6508444  3
   5341   5340   5343   5344     1  0.0000000  0.6508444  3
   5341   5340   5343   5345     1  0.0000000  0.6508444  3
   5342   5340   5339   5350     1  0.0000000  1.2552000  3
   5342   5340   5343   5346     1  0.0000000  0.6508444  3
   5342   5340   5343   5344     1  0.0000000  0.6508444  3
   5342   5340   5343   5345     1  0.0000000  0.6508444  3
   5343   5346   5348   5349     1  180.0000771  9.6232000  2
   5344   5343   5346   5347     1  0.0000000  3.3472000  1
   5344   5343   5346   5347     1  0.0000000  0.0000000  2
   5344   5343   5346   5347     1  180.0000771  0.3347200  3
   5344   5343   5346   5348     1  180.0000771  0.0000000  2
   5345   5343   5346   5347     1  0.0000000  3.3472000  1
   5345   5343   5346   5347     1  0.0000000  0.0000000  2
   5345   5343   5346   5347     1  180.0000771  0.3347200  3
   5345   5343   5346   5348     1  180.0000771  0.0000000  2
   5347   5346   5348   5349     1  0.0000000  7.9496000  1
   5347   5346   5348   5349     1  180.0000771  9.6232000  2
   5351   5350   5353   5356     1  0.0000000  0.6508444  3
   5351   5350   5353   5354     1  0.0000000  0.6508444  3
   5351   5350   5353   5355     1  0.0000000  0.6508444  3
   5352   5350   5353   5356     1  0.0000000  0.6508444  3
   5352   5350   5353   5354     1  0.0000000  0.6508444  3
   5352   5350   5353   5355     1  0.0000000  0.6508444  3
   5353   5356   5358   5359     1  180.0000771  9.6232000  2
   5354   5353   5356   5357     1  0.0000000  3.3472000  1
   5354   5353   5356   5357     1  0.0000000  0.0000000  2
   5354   5353   5356   5357     1  180.0000771  0.3347200  3
   5354   5353   5356   5358     1  180.0000771  0.0000000  2
   5355   5353   5356   5357     1  0.0000000  3.3472000  1
   5355   5353   5356   5357     1  0.0000000  0.0000000  2
   5355   5353   5356   5357     1  180.0000771  0.3347200  3
   5355   5353   5356   5358     1  180.0000771  0.0000000  2
   5357   5356   5358   5359     1  0.0000000  7.9496000  1
   5357   5356   5358   5359     1  180.0000771  9.6232000  2
   5361   5364   5367   5368     1  0.0000000  0.6508444  3
   5361   5364   5367   5369     1  0.0000000  0.6508444  3
   5362   5361   5364   5367     1  0.0000000  0.6508444  3
   5362   5361   5364   5365     1  0.0000000  0.6508444  3
   5362   5361   5364   5366     1  0.0000000  0.6508444  3
   5363   5361   5364   5367     1  0.0000000  0.6508444  3
   5363   5361   5364   5365     1  0.0000000  0.6508444  3
   5363   5361   5364   5366     1  0.0000000  0.6508444  3
   5365   5364   5367   5370     1  0.0000000  0.6508444  3
   5365   5364   5367   5368     1  0.0000000  0.6508444  3
   5365   5364   5367   5369     1  0.0000000  0.6508444  3
   5365   5364   5361   5391     1  0.0000000  1.0460000  1
   5365   5364   5361   5391     1  0.0000000  0.0000000  3
   5366   5364   5367   5370     1  0.0000000  0.6508444  3
   5366   5364   5367   5368     1  0.0000000  0.6508444  3
   5366   5364   5367   5369     1  0.0000000  0.6508444  3
   5366   5364   5361   5391     1  0.0000000  1.0460000  1
   5366   5364   5361   5391     1  0.0000000  0.0000000  3
   5367   5370   5371   5372     1  0.0000000  1.2552000  3
   5367   5370   5371   5373     1  0.0000000  1.2552000  3
   5367   5370   5381   5382     1  0.0000000  1.2552000  3
   5367   5370   5381   5383     1  0.0000000  1.2552000  3
   5368   5367   5370   5371     1  0.0000000  1.2552000  3
   5368   5367   5370   5381     1  0.0000000  1.2552000  3
   5369   5367   5370   5371     1  0.0000000  1.2552000  3
   5369   5367   5370   5381     1  0.0000000  1.2552000  3
   5370   5371   5374   5375     1  0.0000000  0.6508444  3
   5370   5371   5374   5376     1  0.0000000  0.6508444  3
   5370   5381   5384   5385     1  0.0000000  0.6508444  3
   5370   5381   5384   5386     1  0.0000000  0.6508444  3
   5371   5370   5381   5382     1  0.0000000  1.2552000  3
   5371   5370   5381   5383     1  0.0000000  1.2552000  3
   5372   5371   5374   5377     1  0.0000000  0.6508444  3
   5372   5371   5374   5375     1  0.0000000  0.6508444  3
   5372   5371   5374   5376     1  0.0000000  0.6508444  3
   5372   5371   5370   5381     1  0.0000000  1.2552000  3
   5373   5371   5374   5377     1  0.0000000  0.6508444  3
   5373   5371   5374   5375     1  0.0000000  0.6508444  3
   5373   5371   5374   5376     1  0.0000000  0.6508444  3
   5373   5371   5370   5381     1  0.0000000  1.2552000  3
   5374   5377   5379   5380     1  180.0000771  9.6232000  2
   5375   5374   5377   5378     1  0.0000000  3.3472000  1
   5375   5374   5377   5378     1  0.0000000  0.0000000  2
   5375   5374   5377   5378     1  180.0000771  0.3347200  3
   5375   5374   5377   5379     1  180.0000771  0.0000000  2
   5376   5374   5377   5378     1  0.0000000  3.3472000  1
   5376   5374   5377   5378     1  0.0000000  0.0000000  2
   5376   5374   5377   5378     1  180.0000771  0.3347200  3
   5376   5374   5377   5379     1  180.0000771  0.0000000  2
   5378   5377   5379   5380     1  0.0000000  7.9496000  1
   5378   5377   5379   5380     1  180.0000771  9.6232000  2
   5382   5381   5384   5387     1  0.0000000  0.6508444  3
   5382   5381   5384   5385     1  0.0000000  0.6508444  3
   5382   5381   5384   5386     1  0.0000000  0.6508444  3
   5383   5381   5384   5387     1  0.0000000  0.6508444  3
   5383   5381   5384   5385     1  0.0000000  0.6508444  3
   5383   5381   5384   5386     1  0.0000000  0.6508444  3
   5384   5387   5389   5390     1  180.0000771  9.6232000  2
   5385   5384   5387   5388     1  0.0000000  3.3472000  1
   5385   5384   5387   5388     1  0.0000000  0.0000000  2
   5385   5384   5387   5388     1  180.0000771  0.3347200  3
   5385   5384   5387   5389     1  180.0000771  0.0000000  2
   5386   5384   5387   5388     1  0.0000000  3.3472000  1
   5386   5384   5387   5388     1  0.0000000  0.0000000  2
   5386   5384   5387   5388     1  180.0000771  0.3347200  3
   5386   5384   5387   5389     1  180.0000771  0.0000000  2
   5388   5387   5389   5390     1  0.0000000  7.9496000  1
   5388   5387   5389   5390     1  180.0000771  9.6232000  2
   5392   5395   5398   5399     1  0.0000000  0.6508444  3
   5392   5395   5398   5400     1  0.0000000  0.6508444  3
   5393   5392   5395   5398     1  0.0000000  0.6508444  3
   5393   5392   5395   5396     1  0.0000000  0.6508444  3
   5393   5392   5395   5397     1  0.0000000  0.6508444  3
   5394   5392   5395   5398     1  0.0000000  0.6508444  3
   5394   5392   5395   5396     1  0.0000000  0.6508444  3
   5394   5392   5395   5397     1  0.0000000  0.6508444  3
   5396   5395   5392   5422     1  0.0000000  1.0460000  1
   5396   5395   5392   5422     1  0.0000000  0.0000000  3
   5396   5395   5398   5401     1  0.0000000  0.6508444  3
   5396   5395   5398   5399     1  0.0000000  0.6508444  3
   5396   5395   5398   5400     1  0.0000000  0.6508444  3
   5397   5395   5392   5422     1  0.0000000  1.0460000  1
   5397   5395   5392   5422     1  0.0000000  0.0000000  3
   5397   5395   5398   5401     1  0.0000000  0.6508444  3
   5397   5395   5398   5399     1  0.0000000  0.6508444  3
   5397   5395   5398   5400     1  0.0000000  0.6508444  3
   5398   5401   5402   5403     1  0.0000000  1.2552000  3
   5398   5401   5402   5404     1  0.0000000  1.2552000  3
   5398   5401   5412   5413     1  0.0000000  1.2552000  3
   5398   5401   5412   5414     1  0.0000000  1.2552000  3
   5399   5398   5401   5402     1  0.0000000  1.2552000  3
   5399   5398   5401   5412     1  0.0000000  1.2552000  3
   5400   5398   5401   5402     1  0.0000000  1.2552000  3
   5400   5398   5401   5412     1  0.0000000  1.2552000  3
   5401   5402   5405   5406     1  0.0000000  0.6508444  3
   5401   5402   5405   5407     1  0.0000000  0.6508444  3
   5401   5412   5415   5416     1  0.0000000  0.6508444  3
   5401   5412   5415   5417     1  0.0000000  0.6508444  3
   5402   5401   5412   5413     1  0.0000000  1.2552000  3
   5402   5401   5412   5414     1  0.0000000  1.2552000  3
   5403   5402   5401   5412     1  0.0000000  1.2552000  3
   5403   5402   5405   5408     1  0.0000000  0.6508444  3
   5403   5402   5405   5406     1  0.0000000  0.6508444  3
   5403   5402   5405   5407     1  0.0000000  0.6508444  3
   5404   5402   5401   5412     1  0.0000000  1.2552000  3
   5404   5402   5405   5408     1  0.0000000  0.6508444  3
   5404   5402   5405   5406     1  0.0000000  0.6508444  3
   5404   5402   5405   5407     1  0.0000000  0.6508444  3
   5405   5408   5410   5411     1  180.0000771  9.6232000  2
   5406   5405   5408   5409     1  0.0000000  3.3472000  1
   5406   5405   5408   5409     1  0.0000000  0.0000000  2
   5406   5405   5408   5409     1  180.0000771  0.3347200  3
   5406   5405   5408   5410     1  180.0000771  0.0000000  2
   5407   5405   5408   5409     1  0.0000000  3.3472000  1
   5407   5405   5408   5409     1  0.0000000  0.0000000  2
   5407   5405   5408   5409     1  180.0000771  0.3347200  3
   5407   5405   5408   5410     1  180.0000771  0.0000000  2
   5409   5408   5410   5411     1  0.0000000  7.9496000  1
   5409   5408   5410   5411     1  180.0000771  9.6232000  2
   5413   5412   5415   5418     1  0.0000000  0.6508444  3
   5413   5412   5415   5416     1  0.0000000  0.6508444  3
   5413   5412   5415   5417     1  0.0000000  0.6508444  3
   5414   5412   5415   5418     1  0.0000000  0.6508444  3
   5414   5412   5415   5416     1  0.0000000  0.6508444  3
   5414   5412   5415   5417     1  0.0000000  0.6508444  3
   5415   5418   5420   5421     1  180.0000771  9.6232000  2
   5416   5415   5418   5419     1  0.0000000  3.3472000  1
   5416   5415   5418   5419     1  0.0000000  0.0000000  2
   5416   5415   5418   5419     1  180.0000771  0.3347200  3
   5416   5415   5418   5420     1  180.0000771  0.0000000  2
   5417   5415   5418   5419     1  0.0000000  3.3472000  1
   5417   5415   5418   5419     1  0.0000000  0.0000000  2
   5417   5415   5418   5419     1  180.0000771  0.3347200  3
   5417   5415   5418   5420     1  180.0000771  0.0000000  2
   5419   5418   5420   5421     1  0.0000000  7.9496000  1
   5419   5418   5420   5421     1  180.0000771  9.6232000  2
   5423   5426   5429   5430     1  0.0000000  0.6508444  3
   5423   5426   5429   5431     1  0.0000000  0.6508444  3
   5424   5423   5426   5429     1  0.0000000  0.6508444  3
   5424   5423   5426   5427     1  0.0000000  0.6508444  3
   5424   5423   5426   5428     1  0.0000000  0.6508444  3
   5425   5423   5426   5429     1  0.0000000  0.6508444  3
   5425   5423   5426   5427     1  0.0000000  0.6508444  3
   5425   5423   5426   5428     1  0.0000000  0.6508444  3
   5427   5426   5429   5432     1  0.0000000  0.6508444  3
   5427   5426   5429   5430     1  0.0000000  0.6508444  3
   5427   5426   5429   5431     1  0.0000000  0.6508444  3
   5427   5426   5423   5453     1  0.0000000  1.0460000  1
   5427   5426   5423   5453     1  0.0000000  0.0000000  3
   5428   5426   5429   5432     1  0.0000000  0.6508444  3
   5428   5426   5429   5430     1  0.0000000  0.6508444  3
   5428   5426   5429   5431     1  0.0000000  0.6508444  3
   5428   5426   5423   5453     1  0.0000000  1.0460000  1
   5428   5426   5423   5453     1  0.0000000  0.0000000  3
   5429   5432   5433   5434     1  0.0000000  1.2552000  3
   5429   5432   5433   5435     1  0.0000000  1.2552000  3
   5429   5432   5443   5444     1  0.0000000  1.2552000  3
   5429   5432   5443   5445     1  0.0000000  1.2552000  3
   5430   5429   5432   5433     1  0.0000000  1.2552000  3
   5430   5429   5432   5443     1  0.0000000  1.2552000  3
   5431   5429   5432   5433     1  0.0000000  1.2552000  3
   5431   5429   5432   5443     1  0.0000000  1.2552000  3
   5432   5433   5436   5437     1  0.0000000  0.6508444  3
   5432   5433   5436   5438     1  0.0000000  0.6508444  3
   5432   5443   5446   5447     1  0.0000000  0.6508444  3
   5432   5443   5446   5448     1  0.0000000  0.6508444  3
   5433   5432   5443   5444     1  0.0000000  1.2552000  3
   5433   5432   5443   5445     1  0.0000000  1.2552000  3
   5434   5433   5436   5439     1  0.0000000  0.6508444  3
   5434   5433   5436   5437     1  0.0000000  0.6508444  3
   5434   5433   5436   5438     1  0.0000000  0.6508444  3
   5434   5433   5432   5443     1  0.0000000  1.2552000  3
   5435   5433   5436   5439     1  0.0000000  0.6508444  3
   5435   5433   5436   5437     1  0.0000000  0.6508444  3
   5435   5433   5436   5438     1  0.0000000  0.6508444  3
   5435   5433   5432   5443     1  0.0000000  1.2552000  3
   5436   5439   5441   5442     1  180.0000771  9.6232000  2
   5437   5436   5439   5440     1  0.0000000  3.3472000  1
   5437   5436   5439   5440     1  0.0000000  0.0000000  2
   5437   5436   5439   5440     1  180.0000771  0.3347200  3
   5437   5436   5439   5441     1  180.0000771  0.0000000  2
   5438   5436   5439   5440     1  0.0000000  3.3472000  1
   5438   5436   5439   5440     1  0.0000000  0.0000000  2
   5438   5436   5439   5440     1  180.0000771  0.3347200  3
   5438   5436   5439   5441     1  180.0000771  0.0000000  2
   5440   5439   5441   5442     1  0.0000000  7.9496000  1
   5440   5439   5441   5442     1  180.0000771  9.6232000  2
   5444   5443   5446   5449     1  0.0000000  0.6508444  3
   5444   5443   5446   5447     1  0.0000000  0.6508444  3
   5444   5443   5446   5448     1  0.0000000  0.6508444  3
   5445   5443   5446   5449     1  0.0000000  0.6508444  3
   5445   5443   5446   5447     1  0.0000000  0.6508444  3
   5445   5443   5446   5448     1  0.0000000  0.6508444  3
   5446   5449   5451   5452     1  180.0000771  9.6232000  2
   5447   5446   5449   5450     1  0.0000000  3.3472000  1
   5447   5446   5449   5450     1  0.0000000  0.0000000  2
   5447   5446   5449   5450     1  180.0000771  0.3347200  3
   5447   5446   5449   5451     1  180.0000771  0.0000000  2
   5448   5446   5449   5450     1  0.0000000  3.3472000  1
   5448   5446   5449   5450     1  0.0000000  0.0000000  2
   5448   5446   5449   5450     1  180.0000771  0.3347200  3
   5448   5446   5449   5451     1  180.0000771  0.0000000  2
   5450   5449   5451   5452     1  0.0000000  7.9496000  1
   5450   5449   5451   5452     1  180.0000771  9.6232000  2
   5454   5457   5460   5461     1  0.0000000  0.6508444  3
   5454   5457   5460   5462     1  0.0000000  0.6508444  3
   5455   5454   5457   5460     1  0.0000000  0.6508444  3
   5455   5454   5457   5458     1  0.0000000  0.6508444  3
   5455   5454   5457   5459     1  0.0000000  0.6508444  3
   5456   5454   5457   5460     1  0.0000000  0.6508444  3
   5456   5454   5457   5458     1  0.0000000  0.6508444  3
   5456   5454   5457   5459     1  0.0000000  0.6508444  3
   5458   5457   5454   5484     1  0.0000000  1.0460000  1
   5458   5457   5454   5484     1  0.0000000  0.0000000  3
   5458   5457   5460   5463     1  0.0000000  0.6508444  3
   5458   5457   5460   5461     1  0.0000000  0.6508444  3
   5458   5457   5460   5462     1  0.0000000  0.6508444  3
   5459   5457   5454   5484     1  0.0000000  1.0460000  1
   5459   5457   5454   5484     1  0.0000000  0.0000000  3
   5459   5457   5460   5463     1  0.0000000  0.6508444  3
   5459   5457   5460   5461     1  0.0000000  0.6508444  3
   5459   5457   5460   5462     1  0.0000000  0.6508444  3
   5460   5463   5464   5465     1  0.0000000  1.2552000  3
   5460   5463   5464   5466     1  0.0000000  1.2552000  3
   5460   5463   5474   5475     1  0.0000000  1.2552000  3
   5460   5463   5474   5476     1  0.0000000  1.2552000  3
   5461   5460   5463   5464     1  0.0000000  1.2552000  3
   5461   5460   5463   5474     1  0.0000000  1.2552000  3
   5462   5460   5463   5464     1  0.0000000  1.2552000  3
   5462   5460   5463   5474     1  0.0000000  1.2552000  3
   5463   5464   5467   5468     1  0.0000000  0.6508444  3
   5463   5464   5467   5469     1  0.0000000  0.6508444  3
   5463   5474   5477   5478     1  0.0000000  0.6508444  3
   5463   5474   5477   5479     1  0.0000000  0.6508444  3
   5464   5463   5474   5475     1  0.0000000  1.2552000  3
   5464   5463   5474   5476     1  0.0000000  1.2552000  3
   5465   5464   5463   5474     1  0.0000000  1.2552000  3
   5465   5464   5467   5470     1  0.0000000  0.6508444  3
   5465   5464   5467   5468     1  0.0000000  0.6508444  3
   5465   5464   5467   5469     1  0.0000000  0.6508444  3
   5466   5464   5463   5474     1  0.0000000  1.2552000  3
   5466   5464   5467   5470     1  0.0000000  0.6508444  3
   5466   5464   5467   5468     1  0.0000000  0.6508444  3
   5466   5464   5467   5469     1  0.0000000  0.6508444  3
   5467   5470   5472   5473     1  180.0000771  9.6232000  2
   5468   5467   5470   5471     1  0.0000000  3.3472000  1
   5468   5467   5470   5471     1  0.0000000  0.0000000  2
   5468   5467   5470   5471     1  180.0000771  0.3347200  3
   5468   5467   5470   5472     1  180.0000771  0.0000000  2
   5469   5467   5470   5471     1  0.0000000  3.3472000  1
   5469   5467   5470   5471     1  0.0000000  0.0000000  2
   5469   5467   5470   5471     1  180.0000771  0.3347200  3
   5469   5467   5470   5472     1  180.0000771  0.0000000  2
   5471   5470   5472   5473     1  0.0000000  7.9496000  1
   5471   5470   5472   5473     1  180.0000771  9.6232000  2
   5475   5474   5477   5480     1  0.0000000  0.6508444  3
   5475   5474   5477   5478     1  0.0000000  0.6508444  3
   5475   5474   5477   5479     1  0.0000000  0.6508444  3
   5476   5474   5477   5480     1  0.0000000  0.6508444  3
   5476   5474   5477   5478     1  0.0000000  0.6508444  3
   5476   5474   5477   5479     1  0.0000000  0.6508444  3
   5477   5480   5482   5483     1  180.0000771  9.6232000  2
   5478   5477   5480   5481     1  0.0000000  3.3472000  1
   5478   5477   5480   5481     1  0.0000000  0.0000000  2
   5478   5477   5480   5481     1  180.0000771  0.3347200  3
   5478   5477   5480   5482     1  180.0000771  0.0000000  2
   5479   5477   5480   5481     1  0.0000000  3.3472000  1
   5479   5477   5480   5481     1  0.0000000  0.0000000  2
   5479   5477   5480   5481     1  180.0000771  0.3347200  3
   5479   5477   5480   5482     1  180.0000771  0.0000000  2
   5481   5480   5482   5483     1  0.0000000  7.9496000  1
   5481   5480   5482   5483     1  180.0000771  9.6232000  2
   5485   5488   5491   5492     1  0.0000000  0.6508444  3
   5485   5488   5491   5493     1  0.0000000  0.6508444  3
   5486   5485   5488   5491     1  0.0000000  0.6508444  3
   5486   5485   5488   5489     1  0.0000000  0.6508444  3
   5486   5485   5488   5490     1  0.0000000  0.6508444  3
   5487   5485   5488   5491     1  0.0000000  0.6508444  3
   5487   5485   5488   5489     1  0.0000000  0.6508444  3
   5487   5485   5488   5490     1  0.0000000  0.6508444  3
   5489   5488   5491   5494     1  0.0000000  0.6508444  3
   5489   5488   5491   5492     1  0.0000000  0.6508444  3
   5489   5488   5491   5493     1  0.0000000  0.6508444  3
   5489   5488   5485   5515     1  0.0000000  1.0460000  1
   5489   5488   5485   5515     1  0.0000000  0.0000000  3
   5490   5488   5491   5494     1  0.0000000  0.6508444  3
   5490   5488   5491   5492     1  0.0000000  0.6508444  3
   5490   5488   5491   5493     1  0.0000000  0.6508444  3
   5490   5488   5485   5515     1  0.0000000  1.0460000  1
   5490   5488   5485   5515     1  0.0000000  0.0000000  3
   5491   5494   5495   5496     1  0.0000000  1.2552000  3
   5491   5494   5495   5497     1  0.0000000  1.2552000  3
   5491   5494   5505   5506     1  0.0000000  1.2552000  3
   5491   5494   5505   5507     1  0.0000000  1.2552000  3
   5492   5491   5494   5495     1  0.0000000  1.2552000  3
   5492   5491   5494   5505     1  0.0000000  1.2552000  3
   5493   5491   5494   5495     1  0.0000000  1.2552000  3
   5493   5491   5494   5505     1  0.0000000  1.2552000  3
   5494   5495   5498   5499     1  0.0000000  0.6508444  3
   5494   5495   5498   5500     1  0.0000000  0.6508444  3
   5494   5505   5508   5509     1  0.0000000  0.6508444  3
   5494   5505   5508   5510     1  0.0000000  0.6508444  3
   5495   5494   5505   5506     1  0.0000000  1.2552000  3
   5495   5494   5505   5507     1  0.0000000  1.2552000  3
   5496   5495   5498   5501     1  0.0000000  0.6508444  3
   5496   5495   5498   5499     1  0.0000000  0.6508444  3
   5496   5495   5498   5500     1  0.0000000  0.6508444  3
   5496   5495   5494   5505     1  0.0000000  1.2552000  3
   5497   5495   5498   5501     1  0.0000000  0.6508444  3
   5497   5495   5498   5499     1  0.0000000  0.6508444  3
   5497   5495   5498   5500     1  0.0000000  0.6508444  3
   5497   5495   5494   5505     1  0.0000000  1.2552000  3
   5498   5501   5503   5504     1  180.0000771  9.6232000  2
   5499   5498   5501   5502     1  0.0000000  3.3472000  1
   5499   5498   5501   5502     1  0.0000000  0.0000000  2
   5499   5498   5501   5502     1  180.0000771  0.3347200  3
   5499   5498   5501   5503     1  180.0000771  0.0000000  2
   5500   5498   5501   5502     1  0.0000000  3.3472000  1
   5500   5498   5501   5502     1  0.0000000  0.0000000  2
   5500   5498   5501   5502     1  180.0000771  0.3347200  3
   5500   5498   5501   5503     1  180.0000771  0.0000000  2
   5502   5501   5503   5504     1  0.0000000  7.9496000  1
   5502   5501   5503   5504     1  180.0000771  9.6232000  2
   5506   5505   5508   5511     1  0.0000000  0.6508444  3
   5506   5505   5508   5509     1  0.0000000  0.6508444  3
   5506   5505   5508   5510     1  0.0000000  0.6508444  3
   5507   5505   5508   5511     1  0.0000000  0.6508444  3
   5507   5505   5508   5509     1  0.0000000  0.6508444  3
   5507   5505   5508   5510     1  0.0000000  0.6508444  3
   5508   5511   5513   5514     1  180.0000771  9.6232000  2
   5509   5508   5511   5512     1  0.0000000  3.3472000  1
   5509   5508   5511   5512     1  0.0000000  0.0000000  2
   5509   5508   5511   5512     1  180.0000771  0.3347200  3
   5509   5508   5511   5513     1  180.0000771  0.0000000  2
   5510   5508   5511   5512     1  0.0000000  3.3472000  1
   5510   5508   5511   5512     1  0.0000000  0.0000000  2
   5510   5508   5511   5512     1  180.0000771  0.3347200  3
   5510   5508   5511   5513     1  180.0000771  0.0000000  2
   5512   5511   5513   5514     1  0.0000000  7.9496000  1
   5512   5511   5513   5514     1  180.0000771  9.6232000  2
   5516   5519   5522   5523     1  0.0000000  0.6508444  3
   5516   5519   5522   5524     1  0.0000000  0.6508444  3
   5517   5516   5519   5522     1  0.0000000  0.6508444  3
   5517   5516   5519   5520     1  0.0000000  0.6508444  3
   5517   5516   5519   5521     1  0.0000000  0.6508444  3
   5518   5516   5519   5522     1  0.0000000  0.6508444  3
   5518   5516   5519   5520     1  0.0000000  0.6508444  3
   5518   5516   5519   5521     1  0.0000000  0.6508444  3
   5520   5519   5516   5546     1  0.0000000  1.0460000  1
   5520   5519   5516   5546     1  0.0000000  0.0000000  3
   5520   5519   5522   5525     1  0.0000000  0.6508444  3
   5520   5519   5522   5523     1  0.0000000  0.6508444  3
   5520   5519   5522   5524     1  0.0000000  0.6508444  3
   5521   5519   5516   5546     1  0.0000000  1.0460000  1
   5521   5519   5516   5546     1  0.0000000  0.0000000  3
   5521   5519   5522   5525     1  0.0000000  0.6508444  3
   5521   5519   5522   5523     1  0.0000000  0.6508444  3
   5521   5519   5522   5524     1  0.0000000  0.6508444  3
   5522   5525   5526   5527     1  0.0000000  1.2552000  3
   5522   5525   5526   5528     1  0.0000000  1.2552000  3
   5522   5525   5536   5537     1  0.0000000  1.2552000  3
   5522   5525   5536   5538     1  0.0000000  1.2552000  3
   5523   5522   5525   5526     1  0.0000000  1.2552000  3
   5523   5522   5525   5536     1  0.0000000  1.2552000  3
   5524   5522   5525   5526     1  0.0000000  1.2552000  3
   5524   5522   5525   5536     1  0.0000000  1.2552000  3
   5525   5526   5529   5530     1  0.0000000  0.6508444  3
   5525   5526   5529   5531     1  0.0000000  0.6508444  3
   5525   5536   5539   5540     1  0.0000000  0.6508444  3
   5525   5536   5539   5541     1  0.0000000  0.6508444  3
   5526   5525   5536   5537     1  0.0000000  1.2552000  3
   5526   5525   5536   5538     1  0.0000000  1.2552000  3
   5527   5526   5525   5536     1  0.0000000  1.2552000  3
   5527   5526   5529   5532     1  0.0000000  0.6508444  3
   5527   5526   5529   5530     1  0.0000000  0.6508444  3
   5527   5526   5529   5531     1  0.0000000  0.6508444  3
   5528   5526   5525   5536     1  0.0000000  1.2552000  3
   5528   5526   5529   5532     1  0.0000000  0.6508444  3
   5528   5526   5529   5530     1  0.0000000  0.6508444  3
   5528   5526   5529   5531     1  0.0000000  0.6508444  3
   5529   5532   5534   5535     1  180.0000771  9.6232000  2
   5530   5529   5532   5533     1  0.0000000  3.3472000  1
   5530   5529   5532   5533     1  0.0000000  0.0000000  2
   5530   5529   5532   5533     1  180.0000771  0.3347200  3
   5530   5529   5532   5534     1  180.0000771  0.0000000  2
   5531   5529   5532   5533     1  0.0000000  3.3472000  1
   5531   5529   5532   5533     1  0.0000000  0.0000000  2
   5531   5529   5532   5533     1  180.0000771  0.3347200  3
   5531   5529   5532   5534     1  180.0000771  0.0000000  2
   5533   5532   5534   5535     1  0.0000000  7.9496000  1
   5533   5532   5534   5535     1  180.0000771  9.6232000  2
   5537   5536   5539   5542     1  0.0000000  0.6508444  3
   5537   5536   5539   5540     1  0.0000000  0.6508444  3
   5537   5536   5539   5541     1  0.0000000  0.6508444  3
   5538   5536   5539   5542     1  0.0000000  0.6508444  3
   5538   5536   5539   5540     1  0.0000000  0.6508444  3
   5538   5536   5539   5541     1  0.0000000  0.6508444  3
   5539   5542   5544   5545     1  180.0000771  9.6232000  2
   5540   5539   5542   5543     1  0.0000000  3.3472000  1
   5540   5539   5542   5543     1  0.0000000  0.0000000  2
   5540   5539   5542   5543     1  180.0000771  0.3347200  3
   5540   5539   5542   5544     1  180.0000771  0.0000000  2
   5541   5539   5542   5543     1  0.0000000  3.3472000  1
   5541   5539   5542   5543     1  0.0000000  0.0000000  2
   5541   5539   5542   5543     1  180.0000771  0.3347200  3
   5541   5539   5542   5544     1  180.0000771  0.0000000  2
   5543   5542   5544   5545     1  0.0000000  7.9496000  1
   5543   5542   5544   5545     1  180.0000771  9.6232000  2
   5547   5550   5553   5554     1  0.0000000  0.6508444  3
   5547   5550   5553   5555     1  0.0000000  0.6508444  3
   5548   5547   5550   5553     1  0.0000000  0.6508444  3
   5548   5547   5550   5551     1  0.0000000  0.6508444  3
   5548   5547   5550   5552     1  0.0000000  0.6508444  3
   5549   5547   5550   5553     1  0.0000000  0.6508444  3
   5549   5547   5550   5551     1  0.0000000  0.6508444  3
   5549   5547   5550   5552     1  0.0000000  0.6508444  3
   5551   5550   5553   5556     1  0.0000000  0.6508444  3
   5551   5550   5553   5554     1  0.0000000  0.6508444  3
   5551   5550   5553   5555     1  0.0000000  0.6508444  3
   5551   5550   5547   5577     1  0.0000000  1.0460000  1
   5551   5550   5547   5577     1  0.0000000  0.0000000  3
   5552   5550   5553   5556     1  0.0000000  0.6508444  3
   5552   5550   5553   5554     1  0.0000000  0.6508444  3
   5552   5550   5553   5555     1  0.0000000  0.6508444  3
   5552   5550   5547   5577     1  0.0000000  1.0460000  1
   5552   5550   5547   5577     1  0.0000000  0.0000000  3
   5553   5556   5557   5558     1  0.0000000  1.2552000  3
   5553   5556   5557   5559     1  0.0000000  1.2552000  3
   5553   5556   5567   5568     1  0.0000000  1.2552000  3
   5553   5556   5567   5569     1  0.0000000  1.2552000  3
   5554   5553   5556   5557     1  0.0000000  1.2552000  3
   5554   5553   5556   5567     1  0.0000000  1.2552000  3
   5555   5553   5556   5557     1  0.0000000  1.2552000  3
   5555   5553   5556   5567     1  0.0000000  1.2552000  3
   5556   5557   5560   5561     1  0.0000000  0.6508444  3
   5556   5557   5560   5562     1  0.0000000  0.6508444  3
   5556   5567   5570   5571     1  0.0000000  0.6508444  3
   5556   5567   5570   5572     1  0.0000000  0.6508444  3
   5557   5556   5567   5568     1  0.0000000  1.2552000  3
   5557   5556   5567   5569     1  0.0000000  1.2552000  3
   5558   5557   5560   5563     1  0.0000000  0.6508444  3
   5558   5557   5560   5561     1  0.0000000  0.6508444  3
   5558   5557   5560   5562     1  0.0000000  0.6508444  3
   5558   5557   5556   5567     1  0.0000000  1.2552000  3
   5559   5557   5560   5563     1  0.0000000  0.6508444  3
   5559   5557   5560   5561     1  0.0000000  0.6508444  3
   5559   5557   5560   5562     1  0.0000000  0.6508444  3
   5559   5557   5556   5567     1  0.0000000  1.2552000  3
   5560   5563   5565   5566     1  180.0000771  9.6232000  2
   5561   5560   5563   5564     1  0.0000000  3.3472000  1
   5561   5560   5563   5564     1  0.0000000  0.0000000  2
   5561   5560   5563   5564     1  180.0000771  0.3347200  3
   5561   5560   5563   5565     1  180.0000771  0.0000000  2
   5562   5560   5563   5564     1  0.0000000  3.3472000  1
   5562   5560   5563   5564     1  0.0000000  0.0000000  2
   5562   5560   5563   5564     1  180.0000771  0.3347200  3
   5562   5560   5563   5565     1  180.0000771  0.0000000  2
   5564   5563   5565   5566     1  0.0000000  7.9496000  1
   5564   5563   5565   5566     1  180.0000771  9.6232000  2
   5568   5567   5570   5573     1  0.0000000  0.6508444  3
   5568   5567   5570   5571     1  0.0000000  0.6508444  3
   5568   5567   5570   5572     1  0.0000000  0.6508444  3
   5569   5567   5570   5573     1  0.0000000  0.6508444  3
   5569   5567   5570   5571     1  0.0000000  0.6508444  3
   5569   5567   5570   5572     1  0.0000000  0.6508444  3
   5570   5573   5575   5576     1  180.0000771  9.6232000  2
   5571   5570   5573   5574     1  0.0000000  3.3472000  1
   5571   5570   5573   5574     1  0.0000000  0.0000000  2
   5571   5570   5573   5574     1  180.0000771  0.3347200  3
   5571   5570   5573   5575     1  180.0000771  0.0000000  2
   5572   5570   5573   5574     1  0.0000000  3.3472000  1
   5572   5570   5573   5574     1  0.0000000  0.0000000  2
   5572   5570   5573   5574     1  180.0000771  0.3347200  3
   5572   5570   5573   5575     1  180.0000771  0.0000000  2
   5574   5573   5575   5576     1  0.0000000  7.9496000  1
   5574   5573   5575   5576     1  180.0000771  9.6232000  2
   5578   5581   5584   5585     1  0.0000000  0.6508444  3
   5578   5581   5584   5586     1  0.0000000  0.6508444  3
   5579   5578   5581   5584     1  0.0000000  0.6508444  3
   5579   5578   5581   5582     1  0.0000000  0.6508444  3
   5579   5578   5581   5583     1  0.0000000  0.6508444  3
   5580   5578   5581   5584     1  0.0000000  0.6508444  3
   5580   5578   5581   5582     1  0.0000000  0.6508444  3
   5580   5578   5581   5583     1  0.0000000  0.6508444  3
   5582   5581   5578   5608     1  0.0000000  1.0460000  1
   5582   5581   5578   5608     1  0.0000000  0.0000000  3
   5582   5581   5584   5587     1  0.0000000  0.6508444  3
   5582   5581   5584   5585     1  0.0000000  0.6508444  3
   5582   5581   5584   5586     1  0.0000000  0.6508444  3
   5583   5581   5578   5608     1  0.0000000  1.0460000  1
   5583   5581   5578   5608     1  0.0000000  0.0000000  3
   5583   5581   5584   5587     1  0.0000000  0.6508444  3
   5583   5581   5584   5585     1  0.0000000  0.6508444  3
   5583   5581   5584   5586     1  0.0000000  0.6508444  3
   5584   5587   5588   5589     1  0.0000000  1.2552000  3
   5584   5587   5588   5590     1  0.0000000  1.2552000  3
   5584   5587   5598   5599     1  0.0000000  1.2552000  3
   5584   5587   5598   5600     1  0.0000000  1.2552000  3
   5585   5584   5587   5588     1  0.0000000  1.2552000  3
   5585   5584   5587   5598     1  0.0000000  1.2552000  3
   5586   5584   5587   5588     1  0.0000000  1.2552000  3
   5586   5584   5587   5598     1  0.0000000  1.2552000  3
   5587   5588   5591   5592     1  0.0000000  0.6508444  3
   5587   5588   5591   5593     1  0.0000000  0.6508444  3
   5587   5598   5601   5602     1  0.0000000  0.6508444  3
   5587   5598   5601   5603     1  0.0000000  0.6508444  3
   5588   5587   5598   5599     1  0.0000000  1.2552000  3
   5588   5587   5598   5600     1  0.0000000  1.2552000  3
   5589   5588   5587   5598     1  0.0000000  1.2552000  3
   5589   5588   5591   5594     1  0.0000000  0.6508444  3
   5589   5588   5591   5592     1  0.0000000  0.6508444  3
   5589   5588   5591   5593     1  0.0000000  0.6508444  3
   5590   5588   5587   5598     1  0.0000000  1.2552000  3
   5590   5588   5591   5594     1  0.0000000  0.6508444  3
   5590   5588   5591   5592     1  0.0000000  0.6508444  3
   5590   5588   5591   5593     1  0.0000000  0.6508444  3
   5591   5594   5596   5597     1  180.0000771  9.6232000  2
   5592   5591   5594   5595     1  0.0000000  3.3472000  1
   5592   5591   5594   5595     1  0.0000000  0.0000000  2
   5592   5591   5594   5595     1  180.0000771  0.3347200  3
   5592   5591   5594   5596     1  180.0000771  0.0000000  2
   5593   5591   5594   5595     1  0.0000000  3.3472000  1
   5593   5591   5594   5595     1  0.0000000  0.0000000  2
   5593   5591   5594   5595     1  180.0000771  0.3347200  3
   5593   5591   5594   5596     1  180.0000771  0.0000000  2
   5595   5594   5596   5597     1  0.0000000  7.9496000  1
   5595   5594   5596   5597     1  180.0000771  9.6232000  2
   5599   5598   5601   5604     1  0.0000000  0.6508444  3
   5599   5598   5601   5602     1  0.0000000  0.6508444  3
   5599   5598   5601   5603     1  0.0000000  0.6508444  3
   5600   5598   5601   5604     1  0.0000000  0.6508444  3
   5600   5598   5601   5602     1  0.0000000  0.6508444  3
   5600   5598   5601   5603     1  0.0000000  0.6508444  3
   5601   5604   5606   5607     1  180.0000771  9.6232000  2
   5602   5601   5604   5605     1  0.0000000  3.3472000  1
   5602   5601   5604   5605     1  0.0000000  0.0000000  2
   5602   5601   5604   5605     1  180.0000771  0.3347200  3
   5602   5601   5604   5606     1  180.0000771  0.0000000  2
   5603   5601   5604   5605     1  0.0000000  3.3472000  1
   5603   5601   5604   5605     1  0.0000000  0.0000000  2
   5603   5601   5604   5605     1  180.0000771  0.3347200  3
   5603   5601   5604   5606     1  180.0000771  0.0000000  2
   5605   5604   5606   5607     1  0.0000000  7.9496000  1
   5605   5604   5606   5607     1  180.0000771  9.6232000  2
   5609   5612   5615   5616     1  0.0000000  0.6508444  3
   5609   5612   5615   5617     1  0.0000000  0.6508444  3
   5610   5609   5612   5615     1  0.0000000  0.6508444  3
   5610   5609   5612   5613     1  0.0000000  0.6508444  3
   5610   5609   5612   5614     1  0.0000000  0.6508444  3
   5611   5609   5612   5615     1  0.0000000  0.6508444  3
   5611   5609   5612   5613     1  0.0000000  0.6508444  3
   5611   5609   5612   5614     1  0.0000000  0.6508444  3
   5613   5612   5615   5618     1  0.0000000  0.6508444  3
   5613   5612   5615   5616     1  0.0000000  0.6508444  3
   5613   5612   5615   5617     1  0.0000000  0.6508444  3
   5613   5612   5609   5639     1  0.0000000  1.0460000  1
   5613   5612   5609   5639     1  0.0000000  0.0000000  3
   5614   5612   5615   5618     1  0.0000000  0.6508444  3
   5614   5612   5615   5616     1  0.0000000  0.6508444  3
   5614   5612   5615   5617     1  0.0000000  0.6508444  3
   5614   5612   5609   5639     1  0.0000000  1.0460000  1
   5614   5612   5609   5639     1  0.0000000  0.0000000  3
   5615   5618   5619   5620     1  0.0000000  1.2552000  3
   5615   5618   5619   5621     1  0.0000000  1.2552000  3
   5615   5618   5629   5630     1  0.0000000  1.2552000  3
   5615   5618   5629   5631     1  0.0000000  1.2552000  3
   5616   5615   5618   5619     1  0.0000000  1.2552000  3
   5616   5615   5618   5629     1  0.0000000  1.2552000  3
   5617   5615   5618   5619     1  0.0000000  1.2552000  3
   5617   5615   5618   5629     1  0.0000000  1.2552000  3
   5618   5619   5622   5623     1  0.0000000  0.6508444  3
   5618   5619   5622   5624     1  0.0000000  0.6508444  3
   5618   5629   5632   5633     1  0.0000000  0.6508444  3
   5618   5629   5632   5634     1  0.0000000  0.6508444  3
   5619   5618   5629   5630     1  0.0000000  1.2552000  3
   5619   5618   5629   5631     1  0.0000000  1.2552000  3
   5620   5619   5622   5625     1  0.0000000  0.6508444  3
   5620   5619   5622   5623     1  0.0000000  0.6508444  3
   5620   5619   5622   5624     1  0.0000000  0.6508444  3
   5620   5619   5618   5629     1  0.0000000  1.2552000  3
   5621   5619   5622   5625     1  0.0000000  0.6508444  3
   5621   5619   5622   5623     1  0.0000000  0.6508444  3
   5621   5619   5622   5624     1  0.0000000  0.6508444  3
   5621   5619   5618   5629     1  0.0000000  1.2552000  3
   5622   5625   5627   5628     1  180.0000771  9.6232000  2
   5623   5622   5625   5626     1  0.0000000  3.3472000  1
   5623   5622   5625   5626     1  0.0000000  0.0000000  2
   5623   5622   5625   5626     1  180.0000771  0.3347200  3
   5623   5622   5625   5627     1  180.0000771  0.0000000  2
   5624   5622   5625   5626     1  0.0000000  3.3472000  1
   5624   5622   5625   5626     1  0.0000000  0.0000000  2
   5624   5622   5625   5626     1  180.0000771  0.3347200  3
   5624   5622   5625   5627     1  180.0000771  0.0000000  2
   5626   5625   5627   5628     1  0.0000000  7.9496000  1
   5626   5625   5627   5628     1  180.0000771  9.6232000  2
   5630   5629   5632   5635     1  0.0000000  0.6508444  3
   5630   5629   5632   5633     1  0.0000000  0.6508444  3
   5630   5629   5632   5634     1  0.0000000  0.6508444  3
   5631   5629   5632   5635     1  0.0000000  0.6508444  3
   5631   5629   5632   5633     1  0.0000000  0.6508444  3
   5631   5629   5632   5634     1  0.0000000  0.6508444  3
   5632   5635   5637   5638     1  180.0000771  9.6232000  2
   5633   5632   5635   5636     1  0.0000000  3.3472000  1
   5633   5632   5635   5636     1  0.0000000  0.0000000  2
   5633   5632   5635   5636     1  180.0000771  0.3347200  3
   5633   5632   5635   5637     1  180.0000771  0.0000000  2
   5634   5632   5635   5636     1  0.0000000  3.3472000  1
   5634   5632   5635   5636     1  0.0000000  0.0000000  2
   5634   5632   5635   5636     1  180.0000771  0.3347200  3
   5634   5632   5635   5637     1  180.0000771  0.0000000  2
   5636   5635   5637   5638     1  0.0000000  7.9496000  1
   5636   5635   5637   5638     1  180.0000771  9.6232000  2
   5640   5643   5646   5647     1  0.0000000  0.6508444  3
   5640   5643   5646   5648     1  0.0000000  0.6508444  3
   5641   5640   5643   5646     1  0.0000000  0.6508444  3
   5641   5640   5643   5644     1  0.0000000  0.6508444  3
   5641   5640   5643   5645     1  0.0000000  0.6508444  3
   5642   5640   5643   5646     1  0.0000000  0.6508444  3
   5642   5640   5643   5644     1  0.0000000  0.6508444  3
   5642   5640   5643   5645     1  0.0000000  0.6508444  3
   5644   5643   5640   5670     1  0.0000000  1.0460000  1
   5644   5643   5640   5670     1  0.0000000  0.0000000  3
   5644   5643   5646   5649     1  0.0000000  0.6508444  3
   5644   5643   5646   5647     1  0.0000000  0.6508444  3
   5644   5643   5646   5648     1  0.0000000  0.6508444  3
   5645   5643   5640   5670     1  0.0000000  1.0460000  1
   5645   5643   5640   5670     1  0.0000000  0.0000000  3
   5645   5643   5646   5649     1  0.0000000  0.6508444  3
   5645   5643   5646   5647     1  0.0000000  0.6508444  3
   5645   5643   5646   5648     1  0.0000000  0.6508444  3
   5646   5649   5650   5651     1  0.0000000  1.2552000  3
   5646   5649   5650   5652     1  0.0000000  1.2552000  3
   5646   5649   5660   5661     1  0.0000000  1.2552000  3
   5646   5649   5660   5662     1  0.0000000  1.2552000  3
   5647   5646   5649   5650     1  0.0000000  1.2552000  3
   5647   5646   5649   5660     1  0.0000000  1.2552000  3
   5648   5646   5649   5650     1  0.0000000  1.2552000  3
   5648   5646   5649   5660     1  0.0000000  1.2552000  3
   5649   5650   5653   5654     1  0.0000000  0.6508444  3
   5649   5650   5653   5655     1  0.0000000  0.6508444  3
   5649   5660   5663   5664     1  0.0000000  0.6508444  3
   5649   5660   5663   5665     1  0.0000000  0.6508444  3
   5650   5649   5660   5661     1  0.0000000  1.2552000  3
   5650   5649   5660   5662     1  0.0000000  1.2552000  3
   5651   5650   5649   5660     1  0.0000000  1.2552000  3
   5651   5650   5653   5656     1  0.0000000  0.6508444  3
   5651   5650   5653   5654     1  0.0000000  0.6508444  3
   5651   5650   5653   5655     1  0.0000000  0.6508444  3
   5652   5650   5649   5660     1  0.0000000  1.2552000  3
   5652   5650   5653   5656     1  0.0000000  0.6508444  3
   5652   5650   5653   5654     1  0.0000000  0.6508444  3
   5652   5650   5653   5655     1  0.0000000  0.6508444  3
   5653   5656   5658   5659     1  180.0000771  9.6232000  2
   5654   5653   5656   5657     1  0.0000000  3.3472000  1
   5654   5653   5656   5657     1  0.0000000  0.0000000  2
   5654   5653   5656   5657     1  180.0000771  0.3347200  3
   5654   5653   5656   5658     1  180.0000771  0.0000000  2
   5655   5653   5656   5657     1  0.0000000  3.3472000  1
   5655   5653   5656   5657     1  0.0000000  0.0000000  2
   5655   5653   5656   5657     1  180.0000771  0.3347200  3
   5655   5653   5656   5658     1  180.0000771  0.0000000  2
   5657   5656   5658   5659     1  0.0000000  7.9496000  1
   5657   5656   5658   5659     1  180.0000771  9.6232000  2
   5661   5660   5663   5666     1  0.0000000  0.6508444  3
   5661   5660   5663   5664     1  0.0000000  0.6508444  3
   5661   5660   5663   5665     1  0.0000000  0.6508444  3
   5662   5660   5663   5666     1  0.0000000  0.6508444  3
   5662   5660   5663   5664     1  0.0000000  0.6508444  3
   5662   5660   5663   5665     1  0.0000000  0.6508444  3
   5663   5666   5668   5669     1  180.0000771  9.6232000  2
   5664   5663   5666   5667     1  0.0000000  3.3472000  1
   5664   5663   5666   5667     1  0.0000000  0.0000000  2
   5664   5663   5666   5667     1  180.0000771  0.3347200  3
   5664   5663   5666   5668     1  180.0000771  0.0000000  2
   5665   5663   5666   5667     1  0.0000000  3.3472000  1
   5665   5663   5666   5667     1  0.0000000  0.0000000  2
   5665   5663   5666   5667     1  180.0000771  0.3347200  3
   5665   5663   5666   5668     1  180.0000771  0.0000000  2
   5667   5666   5668   5669     1  0.0000000  7.9496000  1
   5667   5666   5668   5669     1  180.0000771  9.6232000  2
   5671   5674   5677   5678     1  0.0000000  0.6508444  3
   5671   5674   5677   5679     1  0.0000000  0.6508444  3
   5672   5671   5674   5677     1  0.0000000  0.6508444  3
   5672   5671   5674   5675     1  0.0000000  0.6508444  3
   5672   5671   5674   5676     1  0.0000000  0.6508444  3
   5673   5671   5674   5677     1  0.0000000  0.6508444  3
   5673   5671   5674   5675     1  0.0000000  0.6508444  3
   5673   5671   5674   5676     1  0.0000000  0.6508444  3
   5675   5674   5677   5680     1  0.0000000  0.6508444  3
   5675   5674   5677   5678     1  0.0000000  0.6508444  3
   5675   5674   5677   5679     1  0.0000000  0.6508444  3
   5675   5674   5671   5701     1  0.0000000  1.0460000  1
   5675   5674   5671   5701     1  0.0000000  0.0000000  3
   5676   5674   5677   5680     1  0.0000000  0.6508444  3
   5676   5674   5677   5678     1  0.0000000  0.6508444  3
   5676   5674   5677   5679     1  0.0000000  0.6508444  3
   5676   5674   5671   5701     1  0.0000000  1.0460000  1
   5676   5674   5671   5701     1  0.0000000  0.0000000  3
   5677   5680   5681   5682     1  0.0000000  1.2552000  3
   5677   5680   5681   5683     1  0.0000000  1.2552000  3
   5677   5680   5691   5692     1  0.0000000  1.2552000  3
   5677   5680   5691   5693     1  0.0000000  1.2552000  3
   5678   5677   5680   5681     1  0.0000000  1.2552000  3
   5678   5677   5680   5691     1  0.0000000  1.2552000  3
   5679   5677   5680   5681     1  0.0000000  1.2552000  3
   5679   5677   5680   5691     1  0.0000000  1.2552000  3
   5680   5681   5684   5685     1  0.0000000  0.6508444  3
   5680   5681   5684   5686     1  0.0000000  0.6508444  3
   5680   5691   5694   5695     1  0.0000000  0.6508444  3
   5680   5691   5694   5696     1  0.0000000  0.6508444  3
   5681   5680   5691   5692     1  0.0000000  1.2552000  3
   5681   5680   5691   5693     1  0.0000000  1.2552000  3
   5682   5681   5684   5687     1  0.0000000  0.6508444  3
   5682   5681   5684   5685     1  0.0000000  0.6508444  3
   5682   5681   5684   5686     1  0.0000000  0.6508444  3
   5682   5681   5680   5691     1  0.0000000  1.2552000  3
   5683   5681   5684   5687     1  0.0000000  0.6508444  3
   5683   5681   5684   5685     1  0.0000000  0.6508444  3
   5683   5681   5684   5686     1  0.0000000  0.6508444  3
   5683   5681   5680   5691     1  0.0000000  1.2552000  3
   5684   5687   5689   5690     1  180.0000771  9.6232000  2
   5685   5684   5687   5688     1  0.0000000  3.3472000  1
   5685   5684   5687   5688     1  0.0000000  0.0000000  2
   5685   5684   5687   5688     1  180.0000771  0.3347200  3
   5685   5684   5687   5689     1  180.0000771  0.0000000  2
   5686   5684   5687   5688     1  0.0000000  3.3472000  1
   5686   5684   5687   5688     1  0.0000000  0.0000000  2
   5686   5684   5687   5688     1  180.0000771  0.3347200  3
   5686   5684   5687   5689     1  180.0000771  0.0000000  2
   5688   5687   5689   5690     1  0.0000000  7.9496000  1
   5688   5687   5689   5690     1  180.0000771  9.6232000  2
   5692   5691   5694   5697     1  0.0000000  0.6508444  3
   5692   5691   5694   5695     1  0.0000000  0.6508444  3
   5692   5691   5694   5696     1  0.0000000  0.6508444  3
   5693   5691   5694   5697     1  0.0000000  0.6508444  3
   5693   5691   5694   5695     1  0.0000000  0.6508444  3
   5693   5691   5694   5696     1  0.0000000  0.6508444  3
   5694   5697   5699   5700     1  180.0000771  9.6232000  2
   5695   5694   5697   5698     1  0.0000000  3.3472000  1
   5695   5694   5697   5698     1  0.0000000  0.0000000  2
   5695   5694   5697   5698     1  180.0000771  0.3347200  3
   5695   5694   5697   5699     1  180.0000771  0.0000000  2
   5696   5694   5697   5698     1  0.0000000  3.3472000  1
   5696   5694   5697   5698     1  0.0000000  0.0000000  2
   5696   5694   5697   5698     1  180.0000771  0.3347200  3
   5696   5694   5697   5699     1  180.0000771  0.0000000  2
   5698   5697   5699   5700     1  0.0000000  7.9496000  1
   5698   5697   5699   5700     1  180.0000771  9.6232000  2

;[ system ]
;; Name
;Generic title
;
;[ molecules ]
;; Compound       #mols
;system1              1
