;
;   File g5dpocore_petim.itp  was generated
;   By user: sairam (1000)
;   On host: sairam
;   At date: Wed. January  3 10:16:12 2025
;
;   This is a standalone topology file
;
;   Created by:
;   ParmEd:       amb2gro_top_gro.py, VERSION 3.4.1
;   Executable:   amb2gro_top_gro.py
;   Library dir:  /usr/local/gromacs/share/gromacs/top
;   Command line:
;     ./amb2gro_top_gro.py -p g5dpocore_petim.prmtop -c g5dpocore_petim.inpcrd -t g5dpocore_petim.itp -g g5dpocore_petim.gro -b g5dpocore_petim.pdb
;

;[ defaults ]
;; nbfunc        comb-rule       gen-pairs       fudgeLJ fudgeQQ
;1               2               yes             0.5          0.83333333  
;
;[ atomtypes ]
;; name    at.num    mass    charge ptype  sigma      epsilon
;os             8  16.000000  0.00000000  A     0.30000123        0.71128
;c3             6  12.010000  0.00000000  A     0.33996695      0.4577296
;h1             1   1.008000  0.00000000  A      0.2471353      0.0656888
;hc             1   1.008000  0.00000000  A     0.26495328      0.0656888
;hx             1   1.008000  0.00000000  A     0.19599772      0.0656888
;n4             7  14.010000  0.00000000  A     0.32499985        0.71128
;hn             1   1.008000  0.00000000  A     0.10690785      0.0656888


[ moleculetype ]
; Name            nrexcl
g5dpocore_petim          3

[ atoms ]
;   nr       type  resnr residue  atom   cgnr    charge       mass  typeB    chargeB      massB
; residue    1 aaa rtp aaa q 2.0
    1         os      1    aaa     O1      1 -0.58111400  16.000000   ; qtot -0.581114
    2         c3      1    aaa     C1      2 0.17711200  12.010000   ; qtot -0.404002
    3         h1      1    aaa     H1      3 0.04565000   1.008000   ; qtot -0.358352
    4         h1      1    aaa     H2      4 0.04565000   1.008000   ; qtot -0.312702
    5         c3      1    aaa     C2      5 0.17711200  12.010000   ; qtot -0.135590
    6         h1      1    aaa     H3      6 0.04565000   1.008000   ; qtot -0.089940
    7         h1      1    aaa     H4      7 0.04565000   1.008000   ; qtot -0.044290
    8         c3      1    aaa     C3      8 0.15102100  12.010000   ; qtot 0.106731
    9         hc      1    aaa     H5      9 0.02538500   1.008000   ; qtot 0.132116
   10         hc      1    aaa     H6     10 0.02538500   1.008000   ; qtot 0.157501
   11         c3      1    aaa     C4     11 0.15102100  12.010000   ; qtot 0.308522
   12         hc      1    aaa     H7     12 0.02538500   1.008000   ; qtot 0.333907
   13         hc      1    aaa     H8     13 0.02538500   1.008000   ; qtot 0.359292
   14         c3      1    aaa     C5     14 -0.29474300  12.010000   ; qtot 0.064549
   15         hx      1    aaa     H9     15 0.12534200   1.008000   ; qtot 0.189891
   16         hx      1    aaa    H10     16 0.12534200   1.008000   ; qtot 0.315233
   17         c3      1    aaa     C6     17 -0.29474300  12.010000   ; qtot 0.020490
   18         hx      1    aaa    H11     18 0.12534200   1.008000   ; qtot 0.145832
   19         hx      1    aaa    H12     19 0.12534200   1.008000   ; qtot 0.271174
   20         n4      1    aaa     N1     20 -0.11447800  14.010000   ; qtot 0.156696
   21         n4      1    aaa     N2     21 -0.11447800  14.010000   ; qtot 0.042218
   22         c3      1    aaa     C7     22 -0.03432800  12.010000   ; qtot 0.007890
   23         hx      1    aaa    H13     23 0.10515400   1.008000   ; qtot 0.113044
   24         hx      1    aaa    H14     24 0.10515400   1.008000   ; qtot 0.218198
   25         c3      1    aaa     C8     25 -0.03432800  12.010000   ; qtot 0.183870
   26         hx      1    aaa    H15     26 0.10515400   1.008000   ; qtot 0.289024
   27         hx      1    aaa    H16     27 0.10515400   1.008000   ; qtot 0.394178
   28         c3      1    aaa     C9     28 -0.03432800  12.010000   ; qtot 0.359850
   29         hx      1    aaa    H17     29 0.10515400   1.008000   ; qtot 0.465004
   30         hx      1    aaa    H18     30 0.10515400   1.008000   ; qtot 0.570158
   31         c3      1    aaa    C10     31 -0.03432800  12.010000   ; qtot 0.535830
   32         hx      1    aaa    H19     32 0.10515400   1.008000   ; qtot 0.640984
   33         hx      1    aaa    H20     33 0.10515400   1.008000   ; qtot 0.746138
   34         c3      1    aaa    C11     34 -0.06183200  12.010000   ; qtot 0.684306
   35         hc      1    aaa    H21     35 0.08865200   1.008000   ; qtot 0.772958
   36         hc      1    aaa    H22     36 0.08865200   1.008000   ; qtot 0.861610
   37         c3      1    aaa    C12     37 -0.06183200  12.010000   ; qtot 0.799778
   38         hc      1    aaa    H23     38 0.08865200   1.008000   ; qtot 0.888430
   39         hc      1    aaa    H24     39 0.08865200   1.008000   ; qtot 0.977082
   40         c3      1    aaa    C13     40 -0.06183200  12.010000   ; qtot 0.915250
   41         hc      1    aaa    H25     41 0.08865200   1.008000   ; qtot 1.003902
   42         hc      1    aaa    H26     42 0.08865200   1.008000   ; qtot 1.092554
   43         c3      1    aaa    C14     43 -0.06183200  12.010000   ; qtot 1.030722
   44         hc      1    aaa    H27     44 0.08865200   1.008000   ; qtot 1.119374
   45         hc      1    aaa    H28     45 0.08865200   1.008000   ; qtot 1.208026
   46         c3      1    aaa    C15     46 -0.22217300  12.010000   ; qtot 0.985853
   47         hc      1    aaa    H29     47 0.16441900   1.008000   ; qtot 1.150272
   48         hc      1    aaa    H30     48 0.16441900   1.008000   ; qtot 1.314691
   49         c3      1    aaa    C16     49 -0.22217300  12.010000   ; qtot 1.092518
   50         hc      1    aaa    H31     50 0.16441900   1.008000   ; qtot 1.256937
   51         hc      1    aaa    H32     51 0.16441900   1.008000   ; qtot 1.421356
   52         c3      1    aaa    C17     52 -0.22217300  12.010000   ; qtot 1.199183
   53         hc      1    aaa    H33     53 0.16441900   1.008000   ; qtot 1.363602
   54         hc      1    aaa    H34     54 0.16441900   1.008000   ; qtot 1.528021
   55         c3      1    aaa    C18     55 -0.22217300  12.010000   ; qtot 1.305848
   56         hc      1    aaa    H35     56 0.16441900   1.008000   ; qtot 1.470267
   57         hc      1    aaa    H36     57 0.16441900   1.008000   ; qtot 1.634686
   58         hn      1    aaa    H38     58 0.18266300   1.008000   ; qtot 1.817349
   59         hn      1    aaa    H37     59 0.18266300   1.008000   ; qtot 2.000012
; residue    2 bbb rtp bbb q 1.0
   60         n4      2    bbb     N1     60 0.03726400  14.010000   ; qtot 2.037276
   61         c3      2    bbb     C1     61 -0.07020100  12.010000   ; qtot 1.967075
   62         hx      2    bbb     H1     62 0.12219000   1.008000   ; qtot 2.089265
   63         hx      2    bbb     H2     63 0.12219000   1.008000   ; qtot 2.211455
   64         c3      2    bbb     C2     64 -0.07020100  12.010000   ; qtot 2.141254
   65         hx      2    bbb     H3     65 0.12219000   1.008000   ; qtot 2.263444
   66         hx      2    bbb     H4     66 0.12219000   1.008000   ; qtot 2.385634
   67         c3      2    bbb     C3     67 -0.39007700  12.010000   ; qtot 1.995557
   68         hx      2    bbb     H5     68 0.14940300   1.008000   ; qtot 2.144960
   69         hx      2    bbb     H6     69 0.14940300   1.008000   ; qtot 2.294363
   70         c3      2    bbb     C4     70 0.18057300  12.010000   ; qtot 2.474936
   71         hc      2    bbb     H7     71 0.01788900   1.008000   ; qtot 2.492825
   72         hc      2    bbb     H8     72 0.01788900   1.008000   ; qtot 2.510714
   73         c3      2    bbb     C5     73 -0.11337700  12.010000   ; qtot 2.397337
   74         hc      2    bbb     H9     74 0.09515400   1.008000   ; qtot 2.492491
   75         hc      2    bbb    H10     75 0.09515400   1.008000   ; qtot 2.587645
   76         c3      2    bbb     C6     76 -0.11337700  12.010000   ; qtot 2.474268
   77         hc      2    bbb    H11     77 0.09515400   1.008000   ; qtot 2.569422
   78         hc      2    bbb    H12     78 0.09515400   1.008000   ; qtot 2.664576
   79         c3      2    bbb     C7     79 0.21842400  12.010000   ; qtot 2.883000
   80         h1      2    bbb    H13     80 0.04500300   1.008000   ; qtot 2.928003
   81         h1      2    bbb    H14     81 0.04500300   1.008000   ; qtot 2.973006
   82         c3      2    bbb     C8     82 -0.06455200  12.010000   ; qtot 2.908454
   83         h1      2    bbb    H15     83 0.13554100   1.008000   ; qtot 3.043995
   84         h1      2    bbb    H16     84 0.13554100   1.008000   ; qtot 3.179536
   85         c3      2    bbb     C9     85 -0.06455200  12.010000   ; qtot 3.114984
   86         h1      2    bbb    H17     86 0.13554100   1.008000   ; qtot 3.250525
   87         h1      2    bbb    H18     87 0.13554100   1.008000   ; qtot 3.386066
   88         os      2    bbb     O1     88 -0.62587700  16.000000   ; qtot 2.760189
   89         hn      2    bbb    H19     89 0.23982500   1.008000   ; qtot 3.000014
; residue    3 bbb rtp bbb q 1.0
   90         n4      3    bbb     N1     90 0.03726400  14.010000   ; qtot 3.037278
   91         c3      3    bbb     C1     91 -0.07020100  12.010000   ; qtot 2.967077
   92         hx      3    bbb     H1     92 0.12219000   1.008000   ; qtot 3.089267
   93         hx      3    bbb     H2     93 0.12219000   1.008000   ; qtot 3.211457
   94         c3      3    bbb     C2     94 -0.07020100  12.010000   ; qtot 3.141256
   95         hx      3    bbb     H3     95 0.12219000   1.008000   ; qtot 3.263446
   96         hx      3    bbb     H4     96 0.12219000   1.008000   ; qtot 3.385636
   97         c3      3    bbb     C3     97 -0.39007700  12.010000   ; qtot 2.995559
   98         hx      3    bbb     H5     98 0.14940300   1.008000   ; qtot 3.144962
   99         hx      3    bbb     H6     99 0.14940300   1.008000   ; qtot 3.294365
  100         c3      3    bbb     C4    100 0.18057300  12.010000   ; qtot 3.474938
  101         hc      3    bbb     H7    101 0.01788900   1.008000   ; qtot 3.492827
  102         hc      3    bbb     H8    102 0.01788900   1.008000   ; qtot 3.510716
  103         c3      3    bbb     C5    103 -0.11337700  12.010000   ; qtot 3.397339
  104         hc      3    bbb     H9    104 0.09515400   1.008000   ; qtot 3.492493
  105         hc      3    bbb    H10    105 0.09515400   1.008000   ; qtot 3.587647
  106         c3      3    bbb     C6    106 -0.11337700  12.010000   ; qtot 3.474270
  107         hc      3    bbb    H11    107 0.09515400   1.008000   ; qtot 3.569424
  108         hc      3    bbb    H12    108 0.09515400   1.008000   ; qtot 3.664578
  109         c3      3    bbb     C7    109 0.21842400  12.010000   ; qtot 3.883002
  110         h1      3    bbb    H13    110 0.04500300   1.008000   ; qtot 3.928005
  111         h1      3    bbb    H14    111 0.04500300   1.008000   ; qtot 3.973008
  112         c3      3    bbb     C8    112 -0.06455200  12.010000   ; qtot 3.908456
  113         h1      3    bbb    H15    113 0.13554100   1.008000   ; qtot 4.043997
  114         h1      3    bbb    H16    114 0.13554100   1.008000   ; qtot 4.179538
  115         c3      3    bbb     C9    115 -0.06455200  12.010000   ; qtot 4.114986
  116         h1      3    bbb    H17    116 0.13554100   1.008000   ; qtot 4.250527
  117         h1      3    bbb    H18    117 0.13554100   1.008000   ; qtot 4.386068
  118         os      3    bbb     O1    118 -0.62587700  16.000000   ; qtot 3.760191
  119         hn      3    bbb    H19    119 0.23982500   1.008000   ; qtot 4.000016
; residue    4 bbb rtp bbb q 1.0
  120         n4      4    bbb     N1    120 0.03726400  14.010000   ; qtot 4.037280
  121         c3      4    bbb     C1    121 -0.07020100  12.010000   ; qtot 3.967079
  122         hx      4    bbb     H1    122 0.12219000   1.008000   ; qtot 4.089269
  123         hx      4    bbb     H2    123 0.12219000   1.008000   ; qtot 4.211459
  124         c3      4    bbb     C2    124 -0.07020100  12.010000   ; qtot 4.141258
  125         hx      4    bbb     H3    125 0.12219000   1.008000   ; qtot 4.263448
  126         hx      4    bbb     H4    126 0.12219000   1.008000   ; qtot 4.385638
  127         c3      4    bbb     C3    127 -0.39007700  12.010000   ; qtot 3.995561
  128         hx      4    bbb     H5    128 0.14940300   1.008000   ; qtot 4.144964
  129         hx      4    bbb     H6    129 0.14940300   1.008000   ; qtot 4.294367
  130         c3      4    bbb     C4    130 0.18057300  12.010000   ; qtot 4.474940
  131         hc      4    bbb     H7    131 0.01788900   1.008000   ; qtot 4.492829
  132         hc      4    bbb     H8    132 0.01788900   1.008000   ; qtot 4.510718
  133         c3      4    bbb     C5    133 -0.11337700  12.010000   ; qtot 4.397341
  134         hc      4    bbb     H9    134 0.09515400   1.008000   ; qtot 4.492495
  135         hc      4    bbb    H10    135 0.09515400   1.008000   ; qtot 4.587649
  136         c3      4    bbb     C6    136 -0.11337700  12.010000   ; qtot 4.474272
  137         hc      4    bbb    H11    137 0.09515400   1.008000   ; qtot 4.569426
  138         hc      4    bbb    H12    138 0.09515400   1.008000   ; qtot 4.664580
  139         c3      4    bbb     C7    139 0.21842400  12.010000   ; qtot 4.883004
  140         h1      4    bbb    H13    140 0.04500300   1.008000   ; qtot 4.928007
  141         h1      4    bbb    H14    141 0.04500300   1.008000   ; qtot 4.973010
  142         c3      4    bbb     C8    142 -0.06455200  12.010000   ; qtot 4.908458
  143         h1      4    bbb    H15    143 0.13554100   1.008000   ; qtot 5.043999
  144         h1      4    bbb    H16    144 0.13554100   1.008000   ; qtot 5.179540
  145         c3      4    bbb     C9    145 -0.06455200  12.010000   ; qtot 5.114988
  146         h1      4    bbb    H17    146 0.13554100   1.008000   ; qtot 5.250529
  147         h1      4    bbb    H18    147 0.13554100   1.008000   ; qtot 5.386070
  148         os      4    bbb     O1    148 -0.62587700  16.000000   ; qtot 4.760193
  149         hn      4    bbb    H19    149 0.23982500   1.008000   ; qtot 5.000018
; residue    5 bbb rtp bbb q 1.0
  150         n4      5    bbb     N1    150 0.03726400  14.010000   ; qtot 5.037282
  151         c3      5    bbb     C1    151 -0.07020100  12.010000   ; qtot 4.967081
  152         hx      5    bbb     H1    152 0.12219000   1.008000   ; qtot 5.089271
  153         hx      5    bbb     H2    153 0.12219000   1.008000   ; qtot 5.211461
  154         c3      5    bbb     C2    154 -0.07020100  12.010000   ; qtot 5.141260
  155         hx      5    bbb     H3    155 0.12219000   1.008000   ; qtot 5.263450
  156         hx      5    bbb     H4    156 0.12219000   1.008000   ; qtot 5.385640
  157         c3      5    bbb     C3    157 -0.39007700  12.010000   ; qtot 4.995563
  158         hx      5    bbb     H5    158 0.14940300   1.008000   ; qtot 5.144966
  159         hx      5    bbb     H6    159 0.14940300   1.008000   ; qtot 5.294369
  160         c3      5    bbb     C4    160 0.18057300  12.010000   ; qtot 5.474942
  161         hc      5    bbb     H7    161 0.01788900   1.008000   ; qtot 5.492831
  162         hc      5    bbb     H8    162 0.01788900   1.008000   ; qtot 5.510720
  163         c3      5    bbb     C5    163 -0.11337700  12.010000   ; qtot 5.397343
  164         hc      5    bbb     H9    164 0.09515400   1.008000   ; qtot 5.492497
  165         hc      5    bbb    H10    165 0.09515400   1.008000   ; qtot 5.587651
  166         c3      5    bbb     C6    166 -0.11337700  12.010000   ; qtot 5.474274
  167         hc      5    bbb    H11    167 0.09515400   1.008000   ; qtot 5.569428
  168         hc      5    bbb    H12    168 0.09515400   1.008000   ; qtot 5.664582
  169         c3      5    bbb     C7    169 0.21842400  12.010000   ; qtot 5.883006
  170         h1      5    bbb    H13    170 0.04500300   1.008000   ; qtot 5.928009
  171         h1      5    bbb    H14    171 0.04500300   1.008000   ; qtot 5.973012
  172         c3      5    bbb     C8    172 -0.06455200  12.010000   ; qtot 5.908460
  173         h1      5    bbb    H15    173 0.13554100   1.008000   ; qtot 6.044001
  174         h1      5    bbb    H16    174 0.13554100   1.008000   ; qtot 6.179542
  175         c3      5    bbb     C9    175 -0.06455200  12.010000   ; qtot 6.114990
  176         h1      5    bbb    H17    176 0.13554100   1.008000   ; qtot 6.250531
  177         h1      5    bbb    H18    177 0.13554100   1.008000   ; qtot 6.386072
  178         os      5    bbb     O1    178 -0.62587700  16.000000   ; qtot 5.760195
  179         hn      5    bbb    H19    179 0.23982500   1.008000   ; qtot 6.000020
; residue    6 bbb rtp bbb q 1.0
  180         n4      6    bbb     N1    180 0.03726400  14.010000   ; qtot 6.037284
  181         c3      6    bbb     C1    181 -0.07020100  12.010000   ; qtot 5.967083
  182         hx      6    bbb     H1    182 0.12219000   1.008000   ; qtot 6.089273
  183         hx      6    bbb     H2    183 0.12219000   1.008000   ; qtot 6.211463
  184         c3      6    bbb     C2    184 -0.07020100  12.010000   ; qtot 6.141262
  185         hx      6    bbb     H3    185 0.12219000   1.008000   ; qtot 6.263452
  186         hx      6    bbb     H4    186 0.12219000   1.008000   ; qtot 6.385642
  187         c3      6    bbb     C3    187 -0.39007700  12.010000   ; qtot 5.995565
  188         hx      6    bbb     H5    188 0.14940300   1.008000   ; qtot 6.144968
  189         hx      6    bbb     H6    189 0.14940300   1.008000   ; qtot 6.294371
  190         c3      6    bbb     C4    190 0.18057300  12.010000   ; qtot 6.474944
  191         hc      6    bbb     H7    191 0.01788900   1.008000   ; qtot 6.492833
  192         hc      6    bbb     H8    192 0.01788900   1.008000   ; qtot 6.510722
  193         c3      6    bbb     C5    193 -0.11337700  12.010000   ; qtot 6.397345
  194         hc      6    bbb     H9    194 0.09515400   1.008000   ; qtot 6.492499
  195         hc      6    bbb    H10    195 0.09515400   1.008000   ; qtot 6.587653
  196         c3      6    bbb     C6    196 -0.11337700  12.010000   ; qtot 6.474276
  197         hc      6    bbb    H11    197 0.09515400   1.008000   ; qtot 6.569430
  198         hc      6    bbb    H12    198 0.09515400   1.008000   ; qtot 6.664584
  199         c3      6    bbb     C7    199 0.21842400  12.010000   ; qtot 6.883008
  200         h1      6    bbb    H13    200 0.04500300   1.008000   ; qtot 6.928011
  201         h1      6    bbb    H14    201 0.04500300   1.008000   ; qtot 6.973014
  202         c3      6    bbb     C8    202 -0.06455200  12.010000   ; qtot 6.908462
  203         h1      6    bbb    H15    203 0.13554100   1.008000   ; qtot 7.044003
  204         h1      6    bbb    H16    204 0.13554100   1.008000   ; qtot 7.179544
  205         c3      6    bbb     C9    205 -0.06455200  12.010000   ; qtot 7.114992
  206         h1      6    bbb    H17    206 0.13554100   1.008000   ; qtot 7.250533
  207         h1      6    bbb    H18    207 0.13554100   1.008000   ; qtot 7.386074
  208         os      6    bbb     O1    208 -0.62587700  16.000000   ; qtot 6.760197
  209         hn      6    bbb    H19    209 0.23982500   1.008000   ; qtot 7.000022
; residue    7 bbb rtp bbb q 1.0
  210         n4      7    bbb     N1    210 0.03726400  14.010000   ; qtot 7.037286
  211         c3      7    bbb     C1    211 -0.07020100  12.010000   ; qtot 6.967085
  212         hx      7    bbb     H1    212 0.12219000   1.008000   ; qtot 7.089275
  213         hx      7    bbb     H2    213 0.12219000   1.008000   ; qtot 7.211465
  214         c3      7    bbb     C2    214 -0.07020100  12.010000   ; qtot 7.141264
  215         hx      7    bbb     H3    215 0.12219000   1.008000   ; qtot 7.263454
  216         hx      7    bbb     H4    216 0.12219000   1.008000   ; qtot 7.385644
  217         c3      7    bbb     C3    217 -0.39007700  12.010000   ; qtot 6.995567
  218         hx      7    bbb     H5    218 0.14940300   1.008000   ; qtot 7.144970
  219         hx      7    bbb     H6    219 0.14940300   1.008000   ; qtot 7.294373
  220         c3      7    bbb     C4    220 0.18057300  12.010000   ; qtot 7.474946
  221         hc      7    bbb     H7    221 0.01788900   1.008000   ; qtot 7.492835
  222         hc      7    bbb     H8    222 0.01788900   1.008000   ; qtot 7.510724
  223         c3      7    bbb     C5    223 -0.11337700  12.010000   ; qtot 7.397347
  224         hc      7    bbb     H9    224 0.09515400   1.008000   ; qtot 7.492501
  225         hc      7    bbb    H10    225 0.09515400   1.008000   ; qtot 7.587655
  226         c3      7    bbb     C6    226 -0.11337700  12.010000   ; qtot 7.474278
  227         hc      7    bbb    H11    227 0.09515400   1.008000   ; qtot 7.569432
  228         hc      7    bbb    H12    228 0.09515400   1.008000   ; qtot 7.664586
  229         c3      7    bbb     C7    229 0.21842400  12.010000   ; qtot 7.883010
  230         h1      7    bbb    H13    230 0.04500300   1.008000   ; qtot 7.928013
  231         h1      7    bbb    H14    231 0.04500300   1.008000   ; qtot 7.973016
  232         c3      7    bbb     C8    232 -0.06455200  12.010000   ; qtot 7.908464
  233         h1      7    bbb    H15    233 0.13554100   1.008000   ; qtot 8.044005
  234         h1      7    bbb    H16    234 0.13554100   1.008000   ; qtot 8.179546
  235         c3      7    bbb     C9    235 -0.06455200  12.010000   ; qtot 8.114994
  236         h1      7    bbb    H17    236 0.13554100   1.008000   ; qtot 8.250535
  237         h1      7    bbb    H18    237 0.13554100   1.008000   ; qtot 8.386076
  238         os      7    bbb     O1    238 -0.62587700  16.000000   ; qtot 7.760199
  239         hn      7    bbb    H19    239 0.23982500   1.008000   ; qtot 8.000024
; residue    8 bbb rtp bbb q 1.0
  240         n4      8    bbb     N1    240 0.03726400  14.010000   ; qtot 8.037288
  241         c3      8    bbb     C1    241 -0.07020100  12.010000   ; qtot 7.967087
  242         hx      8    bbb     H1    242 0.12219000   1.008000   ; qtot 8.089277
  243         hx      8    bbb     H2    243 0.12219000   1.008000   ; qtot 8.211467
  244         c3      8    bbb     C2    244 -0.07020100  12.010000   ; qtot 8.141266
  245         hx      8    bbb     H3    245 0.12219000   1.008000   ; qtot 8.263456
  246         hx      8    bbb     H4    246 0.12219000   1.008000   ; qtot 8.385646
  247         c3      8    bbb     C3    247 -0.39007700  12.010000   ; qtot 7.995569
  248         hx      8    bbb     H5    248 0.14940300   1.008000   ; qtot 8.144972
  249         hx      8    bbb     H6    249 0.14940300   1.008000   ; qtot 8.294375
  250         c3      8    bbb     C4    250 0.18057300  12.010000   ; qtot 8.474948
  251         hc      8    bbb     H7    251 0.01788900   1.008000   ; qtot 8.492837
  252         hc      8    bbb     H8    252 0.01788900   1.008000   ; qtot 8.510726
  253         c3      8    bbb     C5    253 -0.11337700  12.010000   ; qtot 8.397349
  254         hc      8    bbb     H9    254 0.09515400   1.008000   ; qtot 8.492503
  255         hc      8    bbb    H10    255 0.09515400   1.008000   ; qtot 8.587657
  256         c3      8    bbb     C6    256 -0.11337700  12.010000   ; qtot 8.474280
  257         hc      8    bbb    H11    257 0.09515400   1.008000   ; qtot 8.569434
  258         hc      8    bbb    H12    258 0.09515400   1.008000   ; qtot 8.664588
  259         c3      8    bbb     C7    259 0.21842400  12.010000   ; qtot 8.883012
  260         h1      8    bbb    H13    260 0.04500300   1.008000   ; qtot 8.928015
  261         h1      8    bbb    H14    261 0.04500300   1.008000   ; qtot 8.973018
  262         c3      8    bbb     C8    262 -0.06455200  12.010000   ; qtot 8.908466
  263         h1      8    bbb    H15    263 0.13554100   1.008000   ; qtot 9.044007
  264         h1      8    bbb    H16    264 0.13554100   1.008000   ; qtot 9.179548
  265         c3      8    bbb     C9    265 -0.06455200  12.010000   ; qtot 9.114996
  266         h1      8    bbb    H17    266 0.13554100   1.008000   ; qtot 9.250537
  267         h1      8    bbb    H18    267 0.13554100   1.008000   ; qtot 9.386078
  268         os      8    bbb     O1    268 -0.62587700  16.000000   ; qtot 8.760201
  269         hn      8    bbb    H19    269 0.23982500   1.008000   ; qtot 9.000026
; residue    9 bbb rtp bbb q 1.0
  270         n4      9    bbb     N1    270 0.03726400  14.010000   ; qtot 9.037290
  271         c3      9    bbb     C1    271 -0.07020100  12.010000   ; qtot 8.967089
  272         hx      9    bbb     H1    272 0.12219000   1.008000   ; qtot 9.089279
  273         hx      9    bbb     H2    273 0.12219000   1.008000   ; qtot 9.211469
  274         c3      9    bbb     C2    274 -0.07020100  12.010000   ; qtot 9.141268
  275         hx      9    bbb     H3    275 0.12219000   1.008000   ; qtot 9.263458
  276         hx      9    bbb     H4    276 0.12219000   1.008000   ; qtot 9.385648
  277         c3      9    bbb     C3    277 -0.39007700  12.010000   ; qtot 8.995571
  278         hx      9    bbb     H5    278 0.14940300   1.008000   ; qtot 9.144974
  279         hx      9    bbb     H6    279 0.14940300   1.008000   ; qtot 9.294377
  280         c3      9    bbb     C4    280 0.18057300  12.010000   ; qtot 9.474950
  281         hc      9    bbb     H7    281 0.01788900   1.008000   ; qtot 9.492839
  282         hc      9    bbb     H8    282 0.01788900   1.008000   ; qtot 9.510728
  283         c3      9    bbb     C5    283 -0.11337700  12.010000   ; qtot 9.397351
  284         hc      9    bbb     H9    284 0.09515400   1.008000   ; qtot 9.492505
  285         hc      9    bbb    H10    285 0.09515400   1.008000   ; qtot 9.587659
  286         c3      9    bbb     C6    286 -0.11337700  12.010000   ; qtot 9.474282
  287         hc      9    bbb    H11    287 0.09515400   1.008000   ; qtot 9.569436
  288         hc      9    bbb    H12    288 0.09515400   1.008000   ; qtot 9.664590
  289         c3      9    bbb     C7    289 0.21842400  12.010000   ; qtot 9.883014
  290         h1      9    bbb    H13    290 0.04500300   1.008000   ; qtot 9.928017
  291         h1      9    bbb    H14    291 0.04500300   1.008000   ; qtot 9.973020
  292         c3      9    bbb     C8    292 -0.06455200  12.010000   ; qtot 9.908468
  293         h1      9    bbb    H15    293 0.13554100   1.008000   ; qtot 10.044009
  294         h1      9    bbb    H16    294 0.13554100   1.008000   ; qtot 10.179550
  295         c3      9    bbb     C9    295 -0.06455200  12.010000   ; qtot 10.114998
  296         h1      9    bbb    H17    296 0.13554100   1.008000   ; qtot 10.250539
  297         h1      9    bbb    H18    297 0.13554100   1.008000   ; qtot 10.386080
  298         os      9    bbb     O1    298 -0.62587700  16.000000   ; qtot 9.760203
  299         hn      9    bbb    H19    299 0.23982500   1.008000   ; qtot 10.000028
; residue   10 bbb rtp bbb q 1.0
  300         n4     10    bbb     N1    300 0.03726400  14.010000   ; qtot 10.037292
  301         c3     10    bbb     C1    301 -0.07020100  12.010000   ; qtot 9.967091
  302         hx     10    bbb     H1    302 0.12219000   1.008000   ; qtot 10.089281
  303         hx     10    bbb     H2    303 0.12219000   1.008000   ; qtot 10.211471
  304         c3     10    bbb     C2    304 -0.07020100  12.010000   ; qtot 10.141270
  305         hx     10    bbb     H3    305 0.12219000   1.008000   ; qtot 10.263460
  306         hx     10    bbb     H4    306 0.12219000   1.008000   ; qtot 10.385650
  307         c3     10    bbb     C3    307 -0.39007700  12.010000   ; qtot 9.995573
  308         hx     10    bbb     H5    308 0.14940300   1.008000   ; qtot 10.144976
  309         hx     10    bbb     H6    309 0.14940300   1.008000   ; qtot 10.294379
  310         c3     10    bbb     C4    310 0.18057300  12.010000   ; qtot 10.474952
  311         hc     10    bbb     H7    311 0.01788900   1.008000   ; qtot 10.492841
  312         hc     10    bbb     H8    312 0.01788900   1.008000   ; qtot 10.510730
  313         c3     10    bbb     C5    313 -0.11337700  12.010000   ; qtot 10.397353
  314         hc     10    bbb     H9    314 0.09515400   1.008000   ; qtot 10.492507
  315         hc     10    bbb    H10    315 0.09515400   1.008000   ; qtot 10.587661
  316         c3     10    bbb     C6    316 -0.11337700  12.010000   ; qtot 10.474284
  317         hc     10    bbb    H11    317 0.09515400   1.008000   ; qtot 10.569438
  318         hc     10    bbb    H12    318 0.09515400   1.008000   ; qtot 10.664592
  319         c3     10    bbb     C7    319 0.21842400  12.010000   ; qtot 10.883016
  320         h1     10    bbb    H13    320 0.04500300   1.008000   ; qtot 10.928019
  321         h1     10    bbb    H14    321 0.04500300   1.008000   ; qtot 10.973022
  322         c3     10    bbb     C8    322 -0.06455200  12.010000   ; qtot 10.908470
  323         h1     10    bbb    H15    323 0.13554100   1.008000   ; qtot 11.044011
  324         h1     10    bbb    H16    324 0.13554100   1.008000   ; qtot 11.179552
  325         c3     10    bbb     C9    325 -0.06455200  12.010000   ; qtot 11.115000
  326         h1     10    bbb    H17    326 0.13554100   1.008000   ; qtot 11.250541
  327         h1     10    bbb    H18    327 0.13554100   1.008000   ; qtot 11.386082
  328         os     10    bbb     O1    328 -0.62587700  16.000000   ; qtot 10.760205
  329         hn     10    bbb    H19    329 0.23982500   1.008000   ; qtot 11.000030
; residue   11 bbb rtp bbb q 1.0
  330         n4     11    bbb     N1    330 0.03726400  14.010000   ; qtot 11.037294
  331         c3     11    bbb     C1    331 -0.07020100  12.010000   ; qtot 10.967093
  332         hx     11    bbb     H1    332 0.12219000   1.008000   ; qtot 11.089283
  333         hx     11    bbb     H2    333 0.12219000   1.008000   ; qtot 11.211473
  334         c3     11    bbb     C2    334 -0.07020100  12.010000   ; qtot 11.141272
  335         hx     11    bbb     H3    335 0.12219000   1.008000   ; qtot 11.263462
  336         hx     11    bbb     H4    336 0.12219000   1.008000   ; qtot 11.385652
  337         c3     11    bbb     C3    337 -0.39007700  12.010000   ; qtot 10.995575
  338         hx     11    bbb     H5    338 0.14940300   1.008000   ; qtot 11.144978
  339         hx     11    bbb     H6    339 0.14940300   1.008000   ; qtot 11.294381
  340         c3     11    bbb     C4    340 0.18057300  12.010000   ; qtot 11.474954
  341         hc     11    bbb     H7    341 0.01788900   1.008000   ; qtot 11.492843
  342         hc     11    bbb     H8    342 0.01788900   1.008000   ; qtot 11.510732
  343         c3     11    bbb     C5    343 -0.11337700  12.010000   ; qtot 11.397355
  344         hc     11    bbb     H9    344 0.09515400   1.008000   ; qtot 11.492509
  345         hc     11    bbb    H10    345 0.09515400   1.008000   ; qtot 11.587663
  346         c3     11    bbb     C6    346 -0.11337700  12.010000   ; qtot 11.474286
  347         hc     11    bbb    H11    347 0.09515400   1.008000   ; qtot 11.569440
  348         hc     11    bbb    H12    348 0.09515400   1.008000   ; qtot 11.664594
  349         c3     11    bbb     C7    349 0.21842400  12.010000   ; qtot 11.883018
  350         h1     11    bbb    H13    350 0.04500300   1.008000   ; qtot 11.928021
  351         h1     11    bbb    H14    351 0.04500300   1.008000   ; qtot 11.973024
  352         c3     11    bbb     C8    352 -0.06455200  12.010000   ; qtot 11.908472
  353         h1     11    bbb    H15    353 0.13554100   1.008000   ; qtot 12.044013
  354         h1     11    bbb    H16    354 0.13554100   1.008000   ; qtot 12.179554
  355         c3     11    bbb     C9    355 -0.06455200  12.010000   ; qtot 12.115002
  356         h1     11    bbb    H17    356 0.13554100   1.008000   ; qtot 12.250543
  357         h1     11    bbb    H18    357 0.13554100   1.008000   ; qtot 12.386084
  358         os     11    bbb     O1    358 -0.62587700  16.000000   ; qtot 11.760207
  359         hn     11    bbb    H19    359 0.23982500   1.008000   ; qtot 12.000032
; residue   12 bbb rtp bbb q 1.0
  360         n4     12    bbb     N1    360 0.03726400  14.010000   ; qtot 12.037296
  361         c3     12    bbb     C1    361 -0.07020100  12.010000   ; qtot 11.967095
  362         hx     12    bbb     H1    362 0.12219000   1.008000   ; qtot 12.089285
  363         hx     12    bbb     H2    363 0.12219000   1.008000   ; qtot 12.211475
  364         c3     12    bbb     C2    364 -0.07020100  12.010000   ; qtot 12.141274
  365         hx     12    bbb     H3    365 0.12219000   1.008000   ; qtot 12.263464
  366         hx     12    bbb     H4    366 0.12219000   1.008000   ; qtot 12.385654
  367         c3     12    bbb     C3    367 -0.39007700  12.010000   ; qtot 11.995577
  368         hx     12    bbb     H5    368 0.14940300   1.008000   ; qtot 12.144980
  369         hx     12    bbb     H6    369 0.14940300   1.008000   ; qtot 12.294383
  370         c3     12    bbb     C4    370 0.18057300  12.010000   ; qtot 12.474956
  371         hc     12    bbb     H7    371 0.01788900   1.008000   ; qtot 12.492845
  372         hc     12    bbb     H8    372 0.01788900   1.008000   ; qtot 12.510734
  373         c3     12    bbb     C5    373 -0.11337700  12.010000   ; qtot 12.397357
  374         hc     12    bbb     H9    374 0.09515400   1.008000   ; qtot 12.492511
  375         hc     12    bbb    H10    375 0.09515400   1.008000   ; qtot 12.587665
  376         c3     12    bbb     C6    376 -0.11337700  12.010000   ; qtot 12.474288
  377         hc     12    bbb    H11    377 0.09515400   1.008000   ; qtot 12.569442
  378         hc     12    bbb    H12    378 0.09515400   1.008000   ; qtot 12.664596
  379         c3     12    bbb     C7    379 0.21842400  12.010000   ; qtot 12.883020
  380         h1     12    bbb    H13    380 0.04500300   1.008000   ; qtot 12.928023
  381         h1     12    bbb    H14    381 0.04500300   1.008000   ; qtot 12.973026
  382         c3     12    bbb     C8    382 -0.06455200  12.010000   ; qtot 12.908474
  383         h1     12    bbb    H15    383 0.13554100   1.008000   ; qtot 13.044015
  384         h1     12    bbb    H16    384 0.13554100   1.008000   ; qtot 13.179556
  385         c3     12    bbb     C9    385 -0.06455200  12.010000   ; qtot 13.115004
  386         h1     12    bbb    H17    386 0.13554100   1.008000   ; qtot 13.250545
  387         h1     12    bbb    H18    387 0.13554100   1.008000   ; qtot 13.386086
  388         os     12    bbb     O1    388 -0.62587700  16.000000   ; qtot 12.760209
  389         hn     12    bbb    H19    389 0.23982500   1.008000   ; qtot 13.000034
; residue   13 bbb rtp bbb q 1.0
  390         n4     13    bbb     N1    390 0.03726400  14.010000   ; qtot 13.037298
  391         c3     13    bbb     C1    391 -0.07020100  12.010000   ; qtot 12.967097
  392         hx     13    bbb     H1    392 0.12219000   1.008000   ; qtot 13.089287
  393         hx     13    bbb     H2    393 0.12219000   1.008000   ; qtot 13.211477
  394         c3     13    bbb     C2    394 -0.07020100  12.010000   ; qtot 13.141276
  395         hx     13    bbb     H3    395 0.12219000   1.008000   ; qtot 13.263466
  396         hx     13    bbb     H4    396 0.12219000   1.008000   ; qtot 13.385656
  397         c3     13    bbb     C3    397 -0.39007700  12.010000   ; qtot 12.995579
  398         hx     13    bbb     H5    398 0.14940300   1.008000   ; qtot 13.144982
  399         hx     13    bbb     H6    399 0.14940300   1.008000   ; qtot 13.294385
  400         c3     13    bbb     C4    400 0.18057300  12.010000   ; qtot 13.474958
  401         hc     13    bbb     H7    401 0.01788900   1.008000   ; qtot 13.492847
  402         hc     13    bbb     H8    402 0.01788900   1.008000   ; qtot 13.510736
  403         c3     13    bbb     C5    403 -0.11337700  12.010000   ; qtot 13.397359
  404         hc     13    bbb     H9    404 0.09515400   1.008000   ; qtot 13.492513
  405         hc     13    bbb    H10    405 0.09515400   1.008000   ; qtot 13.587667
  406         c3     13    bbb     C6    406 -0.11337700  12.010000   ; qtot 13.474290
  407         hc     13    bbb    H11    407 0.09515400   1.008000   ; qtot 13.569444
  408         hc     13    bbb    H12    408 0.09515400   1.008000   ; qtot 13.664598
  409         c3     13    bbb     C7    409 0.21842400  12.010000   ; qtot 13.883022
  410         h1     13    bbb    H13    410 0.04500300   1.008000   ; qtot 13.928025
  411         h1     13    bbb    H14    411 0.04500300   1.008000   ; qtot 13.973028
  412         c3     13    bbb     C8    412 -0.06455200  12.010000   ; qtot 13.908476
  413         h1     13    bbb    H15    413 0.13554100   1.008000   ; qtot 14.044017
  414         h1     13    bbb    H16    414 0.13554100   1.008000   ; qtot 14.179558
  415         c3     13    bbb     C9    415 -0.06455200  12.010000   ; qtot 14.115006
  416         h1     13    bbb    H17    416 0.13554100   1.008000   ; qtot 14.250547
  417         h1     13    bbb    H18    417 0.13554100   1.008000   ; qtot 14.386088
  418         os     13    bbb     O1    418 -0.62587700  16.000000   ; qtot 13.760211
  419         hn     13    bbb    H19    419 0.23982500   1.008000   ; qtot 14.000036
; residue   14 bbb rtp bbb q 1.0
  420         n4     14    bbb     N1    420 0.03726400  14.010000   ; qtot 14.037300
  421         c3     14    bbb     C1    421 -0.07020100  12.010000   ; qtot 13.967099
  422         hx     14    bbb     H1    422 0.12219000   1.008000   ; qtot 14.089289
  423         hx     14    bbb     H2    423 0.12219000   1.008000   ; qtot 14.211479
  424         c3     14    bbb     C2    424 -0.07020100  12.010000   ; qtot 14.141278
  425         hx     14    bbb     H3    425 0.12219000   1.008000   ; qtot 14.263468
  426         hx     14    bbb     H4    426 0.12219000   1.008000   ; qtot 14.385658
  427         c3     14    bbb     C3    427 -0.39007700  12.010000   ; qtot 13.995581
  428         hx     14    bbb     H5    428 0.14940300   1.008000   ; qtot 14.144984
  429         hx     14    bbb     H6    429 0.14940300   1.008000   ; qtot 14.294387
  430         c3     14    bbb     C4    430 0.18057300  12.010000   ; qtot 14.474960
  431         hc     14    bbb     H7    431 0.01788900   1.008000   ; qtot 14.492849
  432         hc     14    bbb     H8    432 0.01788900   1.008000   ; qtot 14.510738
  433         c3     14    bbb     C5    433 -0.11337700  12.010000   ; qtot 14.397361
  434         hc     14    bbb     H9    434 0.09515400   1.008000   ; qtot 14.492515
  435         hc     14    bbb    H10    435 0.09515400   1.008000   ; qtot 14.587669
  436         c3     14    bbb     C6    436 -0.11337700  12.010000   ; qtot 14.474292
  437         hc     14    bbb    H11    437 0.09515400   1.008000   ; qtot 14.569446
  438         hc     14    bbb    H12    438 0.09515400   1.008000   ; qtot 14.664600
  439         c3     14    bbb     C7    439 0.21842400  12.010000   ; qtot 14.883024
  440         h1     14    bbb    H13    440 0.04500300   1.008000   ; qtot 14.928027
  441         h1     14    bbb    H14    441 0.04500300   1.008000   ; qtot 14.973030
  442         c3     14    bbb     C8    442 -0.06455200  12.010000   ; qtot 14.908478
  443         h1     14    bbb    H15    443 0.13554100   1.008000   ; qtot 15.044019
  444         h1     14    bbb    H16    444 0.13554100   1.008000   ; qtot 15.179560
  445         c3     14    bbb     C9    445 -0.06455200  12.010000   ; qtot 15.115008
  446         h1     14    bbb    H17    446 0.13554100   1.008000   ; qtot 15.250549
  447         h1     14    bbb    H18    447 0.13554100   1.008000   ; qtot 15.386090
  448         os     14    bbb     O1    448 -0.62587700  16.000000   ; qtot 14.760213
  449         hn     14    bbb    H19    449 0.23982500   1.008000   ; qtot 15.000038
; residue   15 bbb rtp bbb q 1.0
  450         n4     15    bbb     N1    450 0.03726400  14.010000   ; qtot 15.037302
  451         c3     15    bbb     C1    451 -0.07020100  12.010000   ; qtot 14.967101
  452         hx     15    bbb     H1    452 0.12219000   1.008000   ; qtot 15.089291
  453         hx     15    bbb     H2    453 0.12219000   1.008000   ; qtot 15.211481
  454         c3     15    bbb     C2    454 -0.07020100  12.010000   ; qtot 15.141280
  455         hx     15    bbb     H3    455 0.12219000   1.008000   ; qtot 15.263470
  456         hx     15    bbb     H4    456 0.12219000   1.008000   ; qtot 15.385660
  457         c3     15    bbb     C3    457 -0.39007700  12.010000   ; qtot 14.995583
  458         hx     15    bbb     H5    458 0.14940300   1.008000   ; qtot 15.144986
  459         hx     15    bbb     H6    459 0.14940300   1.008000   ; qtot 15.294389
  460         c3     15    bbb     C4    460 0.18057300  12.010000   ; qtot 15.474962
  461         hc     15    bbb     H7    461 0.01788900   1.008000   ; qtot 15.492851
  462         hc     15    bbb     H8    462 0.01788900   1.008000   ; qtot 15.510740
  463         c3     15    bbb     C5    463 -0.11337700  12.010000   ; qtot 15.397363
  464         hc     15    bbb     H9    464 0.09515400   1.008000   ; qtot 15.492517
  465         hc     15    bbb    H10    465 0.09515400   1.008000   ; qtot 15.587671
  466         c3     15    bbb     C6    466 -0.11337700  12.010000   ; qtot 15.474294
  467         hc     15    bbb    H11    467 0.09515400   1.008000   ; qtot 15.569448
  468         hc     15    bbb    H12    468 0.09515400   1.008000   ; qtot 15.664602
  469         c3     15    bbb     C7    469 0.21842400  12.010000   ; qtot 15.883026
  470         h1     15    bbb    H13    470 0.04500300   1.008000   ; qtot 15.928029
  471         h1     15    bbb    H14    471 0.04500300   1.008000   ; qtot 15.973032
  472         c3     15    bbb     C8    472 -0.06455200  12.010000   ; qtot 15.908480
  473         h1     15    bbb    H15    473 0.13554100   1.008000   ; qtot 16.044021
  474         h1     15    bbb    H16    474 0.13554100   1.008000   ; qtot 16.179562
  475         c3     15    bbb     C9    475 -0.06455200  12.010000   ; qtot 16.115010
  476         h1     15    bbb    H17    476 0.13554100   1.008000   ; qtot 16.250551
  477         h1     15    bbb    H18    477 0.13554100   1.008000   ; qtot 16.386092
  478         os     15    bbb     O1    478 -0.62587700  16.000000   ; qtot 15.760215
  479         hn     15    bbb    H19    479 0.23982500   1.008000   ; qtot 16.000040
; residue   16 bbb rtp bbb q 1.0
  480         n4     16    bbb     N1    480 0.03726400  14.010000   ; qtot 16.037304
  481         c3     16    bbb     C1    481 -0.07020100  12.010000   ; qtot 15.967103
  482         hx     16    bbb     H1    482 0.12219000   1.008000   ; qtot 16.089293
  483         hx     16    bbb     H2    483 0.12219000   1.008000   ; qtot 16.211483
  484         c3     16    bbb     C2    484 -0.07020100  12.010000   ; qtot 16.141282
  485         hx     16    bbb     H3    485 0.12219000   1.008000   ; qtot 16.263472
  486         hx     16    bbb     H4    486 0.12219000   1.008000   ; qtot 16.385662
  487         c3     16    bbb     C3    487 -0.39007700  12.010000   ; qtot 15.995585
  488         hx     16    bbb     H5    488 0.14940300   1.008000   ; qtot 16.144988
  489         hx     16    bbb     H6    489 0.14940300   1.008000   ; qtot 16.294391
  490         c3     16    bbb     C4    490 0.18057300  12.010000   ; qtot 16.474964
  491         hc     16    bbb     H7    491 0.01788900   1.008000   ; qtot 16.492853
  492         hc     16    bbb     H8    492 0.01788900   1.008000   ; qtot 16.510742
  493         c3     16    bbb     C5    493 -0.11337700  12.010000   ; qtot 16.397365
  494         hc     16    bbb     H9    494 0.09515400   1.008000   ; qtot 16.492519
  495         hc     16    bbb    H10    495 0.09515400   1.008000   ; qtot 16.587673
  496         c3     16    bbb     C6    496 -0.11337700  12.010000   ; qtot 16.474296
  497         hc     16    bbb    H11    497 0.09515400   1.008000   ; qtot 16.569450
  498         hc     16    bbb    H12    498 0.09515400   1.008000   ; qtot 16.664604
  499         c3     16    bbb     C7    499 0.21842400  12.010000   ; qtot 16.883028
  500         h1     16    bbb    H13    500 0.04500300   1.008000   ; qtot 16.928031
  501         h1     16    bbb    H14    501 0.04500300   1.008000   ; qtot 16.973034
  502         c3     16    bbb     C8    502 -0.06455200  12.010000   ; qtot 16.908482
  503         h1     16    bbb    H15    503 0.13554100   1.008000   ; qtot 17.044023
  504         h1     16    bbb    H16    504 0.13554100   1.008000   ; qtot 17.179564
  505         c3     16    bbb     C9    505 -0.06455200  12.010000   ; qtot 17.115012
  506         h1     16    bbb    H17    506 0.13554100   1.008000   ; qtot 17.250553
  507         h1     16    bbb    H18    507 0.13554100   1.008000   ; qtot 17.386094
  508         os     16    bbb     O1    508 -0.62587700  16.000000   ; qtot 16.760217
  509         hn     16    bbb    H19    509 0.23982500   1.008000   ; qtot 17.000042
; residue   17 bbb rtp bbb q 1.0
  510         n4     17    bbb     N1    510 0.03726400  14.010000   ; qtot 17.037306
  511         c3     17    bbb     C1    511 -0.07020100  12.010000   ; qtot 16.967105
  512         hx     17    bbb     H1    512 0.12219000   1.008000   ; qtot 17.089295
  513         hx     17    bbb     H2    513 0.12219000   1.008000   ; qtot 17.211485
  514         c3     17    bbb     C2    514 -0.07020100  12.010000   ; qtot 17.141284
  515         hx     17    bbb     H3    515 0.12219000   1.008000   ; qtot 17.263474
  516         hx     17    bbb     H4    516 0.12219000   1.008000   ; qtot 17.385664
  517         c3     17    bbb     C3    517 -0.39007700  12.010000   ; qtot 16.995587
  518         hx     17    bbb     H5    518 0.14940300   1.008000   ; qtot 17.144990
  519         hx     17    bbb     H6    519 0.14940300   1.008000   ; qtot 17.294393
  520         c3     17    bbb     C4    520 0.18057300  12.010000   ; qtot 17.474966
  521         hc     17    bbb     H7    521 0.01788900   1.008000   ; qtot 17.492855
  522         hc     17    bbb     H8    522 0.01788900   1.008000   ; qtot 17.510744
  523         c3     17    bbb     C5    523 -0.11337700  12.010000   ; qtot 17.397367
  524         hc     17    bbb     H9    524 0.09515400   1.008000   ; qtot 17.492521
  525         hc     17    bbb    H10    525 0.09515400   1.008000   ; qtot 17.587675
  526         c3     17    bbb     C6    526 -0.11337700  12.010000   ; qtot 17.474298
  527         hc     17    bbb    H11    527 0.09515400   1.008000   ; qtot 17.569452
  528         hc     17    bbb    H12    528 0.09515400   1.008000   ; qtot 17.664606
  529         c3     17    bbb     C7    529 0.21842400  12.010000   ; qtot 17.883030
  530         h1     17    bbb    H13    530 0.04500300   1.008000   ; qtot 17.928033
  531         h1     17    bbb    H14    531 0.04500300   1.008000   ; qtot 17.973036
  532         c3     17    bbb     C8    532 -0.06455200  12.010000   ; qtot 17.908484
  533         h1     17    bbb    H15    533 0.13554100   1.008000   ; qtot 18.044025
  534         h1     17    bbb    H16    534 0.13554100   1.008000   ; qtot 18.179566
  535         c3     17    bbb     C9    535 -0.06455200  12.010000   ; qtot 18.115014
  536         h1     17    bbb    H17    536 0.13554100   1.008000   ; qtot 18.250555
  537         h1     17    bbb    H18    537 0.13554100   1.008000   ; qtot 18.386096
  538         os     17    bbb     O1    538 -0.62587700  16.000000   ; qtot 17.760219
  539         hn     17    bbb    H19    539 0.23982500   1.008000   ; qtot 18.000044
; residue   18 bbb rtp bbb q 1.0
  540         n4     18    bbb     N1    540 0.03726400  14.010000   ; qtot 18.037308
  541         c3     18    bbb     C1    541 -0.07020100  12.010000   ; qtot 17.967107
  542         hx     18    bbb     H1    542 0.12219000   1.008000   ; qtot 18.089297
  543         hx     18    bbb     H2    543 0.12219000   1.008000   ; qtot 18.211487
  544         c3     18    bbb     C2    544 -0.07020100  12.010000   ; qtot 18.141286
  545         hx     18    bbb     H3    545 0.12219000   1.008000   ; qtot 18.263476
  546         hx     18    bbb     H4    546 0.12219000   1.008000   ; qtot 18.385666
  547         c3     18    bbb     C3    547 -0.39007700  12.010000   ; qtot 17.995589
  548         hx     18    bbb     H5    548 0.14940300   1.008000   ; qtot 18.144992
  549         hx     18    bbb     H6    549 0.14940300   1.008000   ; qtot 18.294395
  550         c3     18    bbb     C4    550 0.18057300  12.010000   ; qtot 18.474968
  551         hc     18    bbb     H7    551 0.01788900   1.008000   ; qtot 18.492857
  552         hc     18    bbb     H8    552 0.01788900   1.008000   ; qtot 18.510746
  553         c3     18    bbb     C5    553 -0.11337700  12.010000   ; qtot 18.397369
  554         hc     18    bbb     H9    554 0.09515400   1.008000   ; qtot 18.492523
  555         hc     18    bbb    H10    555 0.09515400   1.008000   ; qtot 18.587677
  556         c3     18    bbb     C6    556 -0.11337700  12.010000   ; qtot 18.474300
  557         hc     18    bbb    H11    557 0.09515400   1.008000   ; qtot 18.569454
  558         hc     18    bbb    H12    558 0.09515400   1.008000   ; qtot 18.664608
  559         c3     18    bbb     C7    559 0.21842400  12.010000   ; qtot 18.883032
  560         h1     18    bbb    H13    560 0.04500300   1.008000   ; qtot 18.928035
  561         h1     18    bbb    H14    561 0.04500300   1.008000   ; qtot 18.973038
  562         c3     18    bbb     C8    562 -0.06455200  12.010000   ; qtot 18.908486
  563         h1     18    bbb    H15    563 0.13554100   1.008000   ; qtot 19.044027
  564         h1     18    bbb    H16    564 0.13554100   1.008000   ; qtot 19.179568
  565         c3     18    bbb     C9    565 -0.06455200  12.010000   ; qtot 19.115016
  566         h1     18    bbb    H17    566 0.13554100   1.008000   ; qtot 19.250557
  567         h1     18    bbb    H18    567 0.13554100   1.008000   ; qtot 19.386098
  568         os     18    bbb     O1    568 -0.62587700  16.000000   ; qtot 18.760221
  569         hn     18    bbb    H19    569 0.23982500   1.008000   ; qtot 19.000046
; residue   19 bbb rtp bbb q 1.0
  570         n4     19    bbb     N1    570 0.03726400  14.010000   ; qtot 19.037310
  571         c3     19    bbb     C1    571 -0.07020100  12.010000   ; qtot 18.967109
  572         hx     19    bbb     H1    572 0.12219000   1.008000   ; qtot 19.089299
  573         hx     19    bbb     H2    573 0.12219000   1.008000   ; qtot 19.211489
  574         c3     19    bbb     C2    574 -0.07020100  12.010000   ; qtot 19.141288
  575         hx     19    bbb     H3    575 0.12219000   1.008000   ; qtot 19.263478
  576         hx     19    bbb     H4    576 0.12219000   1.008000   ; qtot 19.385668
  577         c3     19    bbb     C3    577 -0.39007700  12.010000   ; qtot 18.995591
  578         hx     19    bbb     H5    578 0.14940300   1.008000   ; qtot 19.144994
  579         hx     19    bbb     H6    579 0.14940300   1.008000   ; qtot 19.294397
  580         c3     19    bbb     C4    580 0.18057300  12.010000   ; qtot 19.474970
  581         hc     19    bbb     H7    581 0.01788900   1.008000   ; qtot 19.492859
  582         hc     19    bbb     H8    582 0.01788900   1.008000   ; qtot 19.510748
  583         c3     19    bbb     C5    583 -0.11337700  12.010000   ; qtot 19.397371
  584         hc     19    bbb     H9    584 0.09515400   1.008000   ; qtot 19.492525
  585         hc     19    bbb    H10    585 0.09515400   1.008000   ; qtot 19.587679
  586         c3     19    bbb     C6    586 -0.11337700  12.010000   ; qtot 19.474302
  587         hc     19    bbb    H11    587 0.09515400   1.008000   ; qtot 19.569456
  588         hc     19    bbb    H12    588 0.09515400   1.008000   ; qtot 19.664610
  589         c3     19    bbb     C7    589 0.21842400  12.010000   ; qtot 19.883034
  590         h1     19    bbb    H13    590 0.04500300   1.008000   ; qtot 19.928037
  591         h1     19    bbb    H14    591 0.04500300   1.008000   ; qtot 19.973040
  592         c3     19    bbb     C8    592 -0.06455200  12.010000   ; qtot 19.908488
  593         h1     19    bbb    H15    593 0.13554100   1.008000   ; qtot 20.044029
  594         h1     19    bbb    H16    594 0.13554100   1.008000   ; qtot 20.179570
  595         c3     19    bbb     C9    595 -0.06455200  12.010000   ; qtot 20.115018
  596         h1     19    bbb    H17    596 0.13554100   1.008000   ; qtot 20.250559
  597         h1     19    bbb    H18    597 0.13554100   1.008000   ; qtot 20.386100
  598         os     19    bbb     O1    598 -0.62587700  16.000000   ; qtot 19.760223
  599         hn     19    bbb    H19    599 0.23982500   1.008000   ; qtot 20.000048
; residue   20 bbb rtp bbb q 1.0
  600         n4     20    bbb     N1    600 0.03726400  14.010000   ; qtot 20.037312
  601         c3     20    bbb     C1    601 -0.07020100  12.010000   ; qtot 19.967111
  602         hx     20    bbb     H1    602 0.12219000   1.008000   ; qtot 20.089301
  603         hx     20    bbb     H2    603 0.12219000   1.008000   ; qtot 20.211491
  604         c3     20    bbb     C2    604 -0.07020100  12.010000   ; qtot 20.141290
  605         hx     20    bbb     H3    605 0.12219000   1.008000   ; qtot 20.263480
  606         hx     20    bbb     H4    606 0.12219000   1.008000   ; qtot 20.385670
  607         c3     20    bbb     C3    607 -0.39007700  12.010000   ; qtot 19.995593
  608         hx     20    bbb     H5    608 0.14940300   1.008000   ; qtot 20.144996
  609         hx     20    bbb     H6    609 0.14940300   1.008000   ; qtot 20.294399
  610         c3     20    bbb     C4    610 0.18057300  12.010000   ; qtot 20.474972
  611         hc     20    bbb     H7    611 0.01788900   1.008000   ; qtot 20.492861
  612         hc     20    bbb     H8    612 0.01788900   1.008000   ; qtot 20.510750
  613         c3     20    bbb     C5    613 -0.11337700  12.010000   ; qtot 20.397373
  614         hc     20    bbb     H9    614 0.09515400   1.008000   ; qtot 20.492527
  615         hc     20    bbb    H10    615 0.09515400   1.008000   ; qtot 20.587681
  616         c3     20    bbb     C6    616 -0.11337700  12.010000   ; qtot 20.474304
  617         hc     20    bbb    H11    617 0.09515400   1.008000   ; qtot 20.569458
  618         hc     20    bbb    H12    618 0.09515400   1.008000   ; qtot 20.664612
  619         c3     20    bbb     C7    619 0.21842400  12.010000   ; qtot 20.883036
  620         h1     20    bbb    H13    620 0.04500300   1.008000   ; qtot 20.928039
  621         h1     20    bbb    H14    621 0.04500300   1.008000   ; qtot 20.973042
  622         c3     20    bbb     C8    622 -0.06455200  12.010000   ; qtot 20.908490
  623         h1     20    bbb    H15    623 0.13554100   1.008000   ; qtot 21.044031
  624         h1     20    bbb    H16    624 0.13554100   1.008000   ; qtot 21.179572
  625         c3     20    bbb     C9    625 -0.06455200  12.010000   ; qtot 21.115020
  626         h1     20    bbb    H17    626 0.13554100   1.008000   ; qtot 21.250561
  627         h1     20    bbb    H18    627 0.13554100   1.008000   ; qtot 21.386102
  628         os     20    bbb     O1    628 -0.62587700  16.000000   ; qtot 20.760225
  629         hn     20    bbb    H19    629 0.23982500   1.008000   ; qtot 21.000050
; residue   21 bbb rtp bbb q 1.0
  630         n4     21    bbb     N1    630 0.03726400  14.010000   ; qtot 21.037314
  631         c3     21    bbb     C1    631 -0.07020100  12.010000   ; qtot 20.967113
  632         hx     21    bbb     H1    632 0.12219000   1.008000   ; qtot 21.089303
  633         hx     21    bbb     H2    633 0.12219000   1.008000   ; qtot 21.211493
  634         c3     21    bbb     C2    634 -0.07020100  12.010000   ; qtot 21.141292
  635         hx     21    bbb     H3    635 0.12219000   1.008000   ; qtot 21.263482
  636         hx     21    bbb     H4    636 0.12219000   1.008000   ; qtot 21.385672
  637         c3     21    bbb     C3    637 -0.39007700  12.010000   ; qtot 20.995595
  638         hx     21    bbb     H5    638 0.14940300   1.008000   ; qtot 21.144998
  639         hx     21    bbb     H6    639 0.14940300   1.008000   ; qtot 21.294401
  640         c3     21    bbb     C4    640 0.18057300  12.010000   ; qtot 21.474974
  641         hc     21    bbb     H7    641 0.01788900   1.008000   ; qtot 21.492863
  642         hc     21    bbb     H8    642 0.01788900   1.008000   ; qtot 21.510752
  643         c3     21    bbb     C5    643 -0.11337700  12.010000   ; qtot 21.397375
  644         hc     21    bbb     H9    644 0.09515400   1.008000   ; qtot 21.492529
  645         hc     21    bbb    H10    645 0.09515400   1.008000   ; qtot 21.587683
  646         c3     21    bbb     C6    646 -0.11337700  12.010000   ; qtot 21.474306
  647         hc     21    bbb    H11    647 0.09515400   1.008000   ; qtot 21.569460
  648         hc     21    bbb    H12    648 0.09515400   1.008000   ; qtot 21.664614
  649         c3     21    bbb     C7    649 0.21842400  12.010000   ; qtot 21.883038
  650         h1     21    bbb    H13    650 0.04500300   1.008000   ; qtot 21.928041
  651         h1     21    bbb    H14    651 0.04500300   1.008000   ; qtot 21.973044
  652         c3     21    bbb     C8    652 -0.06455200  12.010000   ; qtot 21.908492
  653         h1     21    bbb    H15    653 0.13554100   1.008000   ; qtot 22.044033
  654         h1     21    bbb    H16    654 0.13554100   1.008000   ; qtot 22.179574
  655         c3     21    bbb     C9    655 -0.06455200  12.010000   ; qtot 22.115022
  656         h1     21    bbb    H17    656 0.13554100   1.008000   ; qtot 22.250563
  657         h1     21    bbb    H18    657 0.13554100   1.008000   ; qtot 22.386104
  658         os     21    bbb     O1    658 -0.62587700  16.000000   ; qtot 21.760227
  659         hn     21    bbb    H19    659 0.23982500   1.008000   ; qtot 22.000052
; residue   22 bbb rtp bbb q 1.0
  660         n4     22    bbb     N1    660 0.03726400  14.010000   ; qtot 22.037316
  661         c3     22    bbb     C1    661 -0.07020100  12.010000   ; qtot 21.967115
  662         hx     22    bbb     H1    662 0.12219000   1.008000   ; qtot 22.089305
  663         hx     22    bbb     H2    663 0.12219000   1.008000   ; qtot 22.211495
  664         c3     22    bbb     C2    664 -0.07020100  12.010000   ; qtot 22.141294
  665         hx     22    bbb     H3    665 0.12219000   1.008000   ; qtot 22.263484
  666         hx     22    bbb     H4    666 0.12219000   1.008000   ; qtot 22.385674
  667         c3     22    bbb     C3    667 -0.39007700  12.010000   ; qtot 21.995597
  668         hx     22    bbb     H5    668 0.14940300   1.008000   ; qtot 22.145000
  669         hx     22    bbb     H6    669 0.14940300   1.008000   ; qtot 22.294403
  670         c3     22    bbb     C4    670 0.18057300  12.010000   ; qtot 22.474976
  671         hc     22    bbb     H7    671 0.01788900   1.008000   ; qtot 22.492865
  672         hc     22    bbb     H8    672 0.01788900   1.008000   ; qtot 22.510754
  673         c3     22    bbb     C5    673 -0.11337700  12.010000   ; qtot 22.397377
  674         hc     22    bbb     H9    674 0.09515400   1.008000   ; qtot 22.492531
  675         hc     22    bbb    H10    675 0.09515400   1.008000   ; qtot 22.587685
  676         c3     22    bbb     C6    676 -0.11337700  12.010000   ; qtot 22.474308
  677         hc     22    bbb    H11    677 0.09515400   1.008000   ; qtot 22.569462
  678         hc     22    bbb    H12    678 0.09515400   1.008000   ; qtot 22.664616
  679         c3     22    bbb     C7    679 0.21842400  12.010000   ; qtot 22.883040
  680         h1     22    bbb    H13    680 0.04500300   1.008000   ; qtot 22.928043
  681         h1     22    bbb    H14    681 0.04500300   1.008000   ; qtot 22.973046
  682         c3     22    bbb     C8    682 -0.06455200  12.010000   ; qtot 22.908494
  683         h1     22    bbb    H15    683 0.13554100   1.008000   ; qtot 23.044035
  684         h1     22    bbb    H16    684 0.13554100   1.008000   ; qtot 23.179576
  685         c3     22    bbb     C9    685 -0.06455200  12.010000   ; qtot 23.115024
  686         h1     22    bbb    H17    686 0.13554100   1.008000   ; qtot 23.250565
  687         h1     22    bbb    H18    687 0.13554100   1.008000   ; qtot 23.386106
  688         os     22    bbb     O1    688 -0.62587700  16.000000   ; qtot 22.760229
  689         hn     22    bbb    H19    689 0.23982500   1.008000   ; qtot 23.000054
; residue   23 bbb rtp bbb q 1.0
  690         n4     23    bbb     N1    690 0.03726400  14.010000   ; qtot 23.037318
  691         c3     23    bbb     C1    691 -0.07020100  12.010000   ; qtot 22.967117
  692         hx     23    bbb     H1    692 0.12219000   1.008000   ; qtot 23.089307
  693         hx     23    bbb     H2    693 0.12219000   1.008000   ; qtot 23.211497
  694         c3     23    bbb     C2    694 -0.07020100  12.010000   ; qtot 23.141296
  695         hx     23    bbb     H3    695 0.12219000   1.008000   ; qtot 23.263486
  696         hx     23    bbb     H4    696 0.12219000   1.008000   ; qtot 23.385676
  697         c3     23    bbb     C3    697 -0.39007700  12.010000   ; qtot 22.995599
  698         hx     23    bbb     H5    698 0.14940300   1.008000   ; qtot 23.145002
  699         hx     23    bbb     H6    699 0.14940300   1.008000   ; qtot 23.294405
  700         c3     23    bbb     C4    700 0.18057300  12.010000   ; qtot 23.474978
  701         hc     23    bbb     H7    701 0.01788900   1.008000   ; qtot 23.492867
  702         hc     23    bbb     H8    702 0.01788900   1.008000   ; qtot 23.510756
  703         c3     23    bbb     C5    703 -0.11337700  12.010000   ; qtot 23.397379
  704         hc     23    bbb     H9    704 0.09515400   1.008000   ; qtot 23.492533
  705         hc     23    bbb    H10    705 0.09515400   1.008000   ; qtot 23.587687
  706         c3     23    bbb     C6    706 -0.11337700  12.010000   ; qtot 23.474310
  707         hc     23    bbb    H11    707 0.09515400   1.008000   ; qtot 23.569464
  708         hc     23    bbb    H12    708 0.09515400   1.008000   ; qtot 23.664618
  709         c3     23    bbb     C7    709 0.21842400  12.010000   ; qtot 23.883042
  710         h1     23    bbb    H13    710 0.04500300   1.008000   ; qtot 23.928045
  711         h1     23    bbb    H14    711 0.04500300   1.008000   ; qtot 23.973048
  712         c3     23    bbb     C8    712 -0.06455200  12.010000   ; qtot 23.908496
  713         h1     23    bbb    H15    713 0.13554100   1.008000   ; qtot 24.044037
  714         h1     23    bbb    H16    714 0.13554100   1.008000   ; qtot 24.179578
  715         c3     23    bbb     C9    715 -0.06455200  12.010000   ; qtot 24.115026
  716         h1     23    bbb    H17    716 0.13554100   1.008000   ; qtot 24.250567
  717         h1     23    bbb    H18    717 0.13554100   1.008000   ; qtot 24.386108
  718         os     23    bbb     O1    718 -0.62587700  16.000000   ; qtot 23.760231
  719         hn     23    bbb    H19    719 0.23982500   1.008000   ; qtot 24.000056
; residue   24 bbb rtp bbb q 1.0
  720         n4     24    bbb     N1    720 0.03726400  14.010000   ; qtot 24.037320
  721         c3     24    bbb     C1    721 -0.07020100  12.010000   ; qtot 23.967119
  722         hx     24    bbb     H1    722 0.12219000   1.008000   ; qtot 24.089309
  723         hx     24    bbb     H2    723 0.12219000   1.008000   ; qtot 24.211499
  724         c3     24    bbb     C2    724 -0.07020100  12.010000   ; qtot 24.141298
  725         hx     24    bbb     H3    725 0.12219000   1.008000   ; qtot 24.263488
  726         hx     24    bbb     H4    726 0.12219000   1.008000   ; qtot 24.385678
  727         c3     24    bbb     C3    727 -0.39007700  12.010000   ; qtot 23.995601
  728         hx     24    bbb     H5    728 0.14940300   1.008000   ; qtot 24.145004
  729         hx     24    bbb     H6    729 0.14940300   1.008000   ; qtot 24.294407
  730         c3     24    bbb     C4    730 0.18057300  12.010000   ; qtot 24.474980
  731         hc     24    bbb     H7    731 0.01788900   1.008000   ; qtot 24.492869
  732         hc     24    bbb     H8    732 0.01788900   1.008000   ; qtot 24.510758
  733         c3     24    bbb     C5    733 -0.11337700  12.010000   ; qtot 24.397381
  734         hc     24    bbb     H9    734 0.09515400   1.008000   ; qtot 24.492535
  735         hc     24    bbb    H10    735 0.09515400   1.008000   ; qtot 24.587689
  736         c3     24    bbb     C6    736 -0.11337700  12.010000   ; qtot 24.474312
  737         hc     24    bbb    H11    737 0.09515400   1.008000   ; qtot 24.569466
  738         hc     24    bbb    H12    738 0.09515400   1.008000   ; qtot 24.664620
  739         c3     24    bbb     C7    739 0.21842400  12.010000   ; qtot 24.883044
  740         h1     24    bbb    H13    740 0.04500300   1.008000   ; qtot 24.928047
  741         h1     24    bbb    H14    741 0.04500300   1.008000   ; qtot 24.973050
  742         c3     24    bbb     C8    742 -0.06455200  12.010000   ; qtot 24.908498
  743         h1     24    bbb    H15    743 0.13554100   1.008000   ; qtot 25.044039
  744         h1     24    bbb    H16    744 0.13554100   1.008000   ; qtot 25.179580
  745         c3     24    bbb     C9    745 -0.06455200  12.010000   ; qtot 25.115028
  746         h1     24    bbb    H17    746 0.13554100   1.008000   ; qtot 25.250569
  747         h1     24    bbb    H18    747 0.13554100   1.008000   ; qtot 25.386110
  748         os     24    bbb     O1    748 -0.62587700  16.000000   ; qtot 24.760233
  749         hn     24    bbb    H19    749 0.23982500   1.008000   ; qtot 25.000058
; residue   25 bbb rtp bbb q 1.0
  750         n4     25    bbb     N1    750 0.03726400  14.010000   ; qtot 25.037322
  751         c3     25    bbb     C1    751 -0.07020100  12.010000   ; qtot 24.967121
  752         hx     25    bbb     H1    752 0.12219000   1.008000   ; qtot 25.089311
  753         hx     25    bbb     H2    753 0.12219000   1.008000   ; qtot 25.211501
  754         c3     25    bbb     C2    754 -0.07020100  12.010000   ; qtot 25.141300
  755         hx     25    bbb     H3    755 0.12219000   1.008000   ; qtot 25.263490
  756         hx     25    bbb     H4    756 0.12219000   1.008000   ; qtot 25.385680
  757         c3     25    bbb     C3    757 -0.39007700  12.010000   ; qtot 24.995603
  758         hx     25    bbb     H5    758 0.14940300   1.008000   ; qtot 25.145006
  759         hx     25    bbb     H6    759 0.14940300   1.008000   ; qtot 25.294409
  760         c3     25    bbb     C4    760 0.18057300  12.010000   ; qtot 25.474982
  761         hc     25    bbb     H7    761 0.01788900   1.008000   ; qtot 25.492871
  762         hc     25    bbb     H8    762 0.01788900   1.008000   ; qtot 25.510760
  763         c3     25    bbb     C5    763 -0.11337700  12.010000   ; qtot 25.397383
  764         hc     25    bbb     H9    764 0.09515400   1.008000   ; qtot 25.492537
  765         hc     25    bbb    H10    765 0.09515400   1.008000   ; qtot 25.587691
  766         c3     25    bbb     C6    766 -0.11337700  12.010000   ; qtot 25.474314
  767         hc     25    bbb    H11    767 0.09515400   1.008000   ; qtot 25.569468
  768         hc     25    bbb    H12    768 0.09515400   1.008000   ; qtot 25.664622
  769         c3     25    bbb     C7    769 0.21842400  12.010000   ; qtot 25.883046
  770         h1     25    bbb    H13    770 0.04500300   1.008000   ; qtot 25.928049
  771         h1     25    bbb    H14    771 0.04500300   1.008000   ; qtot 25.973052
  772         c3     25    bbb     C8    772 -0.06455200  12.010000   ; qtot 25.908500
  773         h1     25    bbb    H15    773 0.13554100   1.008000   ; qtot 26.044041
  774         h1     25    bbb    H16    774 0.13554100   1.008000   ; qtot 26.179582
  775         c3     25    bbb     C9    775 -0.06455200  12.010000   ; qtot 26.115030
  776         h1     25    bbb    H17    776 0.13554100   1.008000   ; qtot 26.250571
  777         h1     25    bbb    H18    777 0.13554100   1.008000   ; qtot 26.386112
  778         os     25    bbb     O1    778 -0.62587700  16.000000   ; qtot 25.760235
  779         hn     25    bbb    H19    779 0.23982500   1.008000   ; qtot 26.000060
; residue   26 bbb rtp bbb q 1.0
  780         n4     26    bbb     N1    780 0.03726400  14.010000   ; qtot 26.037324
  781         c3     26    bbb     C1    781 -0.07020100  12.010000   ; qtot 25.967123
  782         hx     26    bbb     H1    782 0.12219000   1.008000   ; qtot 26.089313
  783         hx     26    bbb     H2    783 0.12219000   1.008000   ; qtot 26.211503
  784         c3     26    bbb     C2    784 -0.07020100  12.010000   ; qtot 26.141302
  785         hx     26    bbb     H3    785 0.12219000   1.008000   ; qtot 26.263492
  786         hx     26    bbb     H4    786 0.12219000   1.008000   ; qtot 26.385682
  787         c3     26    bbb     C3    787 -0.39007700  12.010000   ; qtot 25.995605
  788         hx     26    bbb     H5    788 0.14940300   1.008000   ; qtot 26.145008
  789         hx     26    bbb     H6    789 0.14940300   1.008000   ; qtot 26.294411
  790         c3     26    bbb     C4    790 0.18057300  12.010000   ; qtot 26.474984
  791         hc     26    bbb     H7    791 0.01788900   1.008000   ; qtot 26.492873
  792         hc     26    bbb     H8    792 0.01788900   1.008000   ; qtot 26.510762
  793         c3     26    bbb     C5    793 -0.11337700  12.010000   ; qtot 26.397385
  794         hc     26    bbb     H9    794 0.09515400   1.008000   ; qtot 26.492539
  795         hc     26    bbb    H10    795 0.09515400   1.008000   ; qtot 26.587693
  796         c3     26    bbb     C6    796 -0.11337700  12.010000   ; qtot 26.474316
  797         hc     26    bbb    H11    797 0.09515400   1.008000   ; qtot 26.569470
  798         hc     26    bbb    H12    798 0.09515400   1.008000   ; qtot 26.664624
  799         c3     26    bbb     C7    799 0.21842400  12.010000   ; qtot 26.883048
  800         h1     26    bbb    H13    800 0.04500300   1.008000   ; qtot 26.928051
  801         h1     26    bbb    H14    801 0.04500300   1.008000   ; qtot 26.973054
  802         c3     26    bbb     C8    802 -0.06455200  12.010000   ; qtot 26.908502
  803         h1     26    bbb    H15    803 0.13554100   1.008000   ; qtot 27.044043
  804         h1     26    bbb    H16    804 0.13554100   1.008000   ; qtot 27.179584
  805         c3     26    bbb     C9    805 -0.06455200  12.010000   ; qtot 27.115032
  806         h1     26    bbb    H17    806 0.13554100   1.008000   ; qtot 27.250573
  807         h1     26    bbb    H18    807 0.13554100   1.008000   ; qtot 27.386114
  808         os     26    bbb     O1    808 -0.62587700  16.000000   ; qtot 26.760237
  809         hn     26    bbb    H19    809 0.23982500   1.008000   ; qtot 27.000062
; residue   27 bbb rtp bbb q 1.0
  810         n4     27    bbb     N1    810 0.03726400  14.010000   ; qtot 27.037326
  811         c3     27    bbb     C1    811 -0.07020100  12.010000   ; qtot 26.967125
  812         hx     27    bbb     H1    812 0.12219000   1.008000   ; qtot 27.089315
  813         hx     27    bbb     H2    813 0.12219000   1.008000   ; qtot 27.211505
  814         c3     27    bbb     C2    814 -0.07020100  12.010000   ; qtot 27.141304
  815         hx     27    bbb     H3    815 0.12219000   1.008000   ; qtot 27.263494
  816         hx     27    bbb     H4    816 0.12219000   1.008000   ; qtot 27.385684
  817         c3     27    bbb     C3    817 -0.39007700  12.010000   ; qtot 26.995607
  818         hx     27    bbb     H5    818 0.14940300   1.008000   ; qtot 27.145010
  819         hx     27    bbb     H6    819 0.14940300   1.008000   ; qtot 27.294413
  820         c3     27    bbb     C4    820 0.18057300  12.010000   ; qtot 27.474986
  821         hc     27    bbb     H7    821 0.01788900   1.008000   ; qtot 27.492875
  822         hc     27    bbb     H8    822 0.01788900   1.008000   ; qtot 27.510764
  823         c3     27    bbb     C5    823 -0.11337700  12.010000   ; qtot 27.397387
  824         hc     27    bbb     H9    824 0.09515400   1.008000   ; qtot 27.492541
  825         hc     27    bbb    H10    825 0.09515400   1.008000   ; qtot 27.587695
  826         c3     27    bbb     C6    826 -0.11337700  12.010000   ; qtot 27.474318
  827         hc     27    bbb    H11    827 0.09515400   1.008000   ; qtot 27.569472
  828         hc     27    bbb    H12    828 0.09515400   1.008000   ; qtot 27.664626
  829         c3     27    bbb     C7    829 0.21842400  12.010000   ; qtot 27.883050
  830         h1     27    bbb    H13    830 0.04500300   1.008000   ; qtot 27.928053
  831         h1     27    bbb    H14    831 0.04500300   1.008000   ; qtot 27.973056
  832         c3     27    bbb     C8    832 -0.06455200  12.010000   ; qtot 27.908504
  833         h1     27    bbb    H15    833 0.13554100   1.008000   ; qtot 28.044045
  834         h1     27    bbb    H16    834 0.13554100   1.008000   ; qtot 28.179586
  835         c3     27    bbb     C9    835 -0.06455200  12.010000   ; qtot 28.115034
  836         h1     27    bbb    H17    836 0.13554100   1.008000   ; qtot 28.250575
  837         h1     27    bbb    H18    837 0.13554100   1.008000   ; qtot 28.386116
  838         os     27    bbb     O1    838 -0.62587700  16.000000   ; qtot 27.760239
  839         hn     27    bbb    H19    839 0.23982500   1.008000   ; qtot 28.000064
; residue   28 bbb rtp bbb q 1.0
  840         n4     28    bbb     N1    840 0.03726400  14.010000   ; qtot 28.037328
  841         c3     28    bbb     C1    841 -0.07020100  12.010000   ; qtot 27.967127
  842         hx     28    bbb     H1    842 0.12219000   1.008000   ; qtot 28.089317
  843         hx     28    bbb     H2    843 0.12219000   1.008000   ; qtot 28.211507
  844         c3     28    bbb     C2    844 -0.07020100  12.010000   ; qtot 28.141306
  845         hx     28    bbb     H3    845 0.12219000   1.008000   ; qtot 28.263496
  846         hx     28    bbb     H4    846 0.12219000   1.008000   ; qtot 28.385686
  847         c3     28    bbb     C3    847 -0.39007700  12.010000   ; qtot 27.995609
  848         hx     28    bbb     H5    848 0.14940300   1.008000   ; qtot 28.145012
  849         hx     28    bbb     H6    849 0.14940300   1.008000   ; qtot 28.294415
  850         c3     28    bbb     C4    850 0.18057300  12.010000   ; qtot 28.474988
  851         hc     28    bbb     H7    851 0.01788900   1.008000   ; qtot 28.492877
  852         hc     28    bbb     H8    852 0.01788900   1.008000   ; qtot 28.510766
  853         c3     28    bbb     C5    853 -0.11337700  12.010000   ; qtot 28.397389
  854         hc     28    bbb     H9    854 0.09515400   1.008000   ; qtot 28.492543
  855         hc     28    bbb    H10    855 0.09515400   1.008000   ; qtot 28.587697
  856         c3     28    bbb     C6    856 -0.11337700  12.010000   ; qtot 28.474320
  857         hc     28    bbb    H11    857 0.09515400   1.008000   ; qtot 28.569474
  858         hc     28    bbb    H12    858 0.09515400   1.008000   ; qtot 28.664628
  859         c3     28    bbb     C7    859 0.21842400  12.010000   ; qtot 28.883052
  860         h1     28    bbb    H13    860 0.04500300   1.008000   ; qtot 28.928055
  861         h1     28    bbb    H14    861 0.04500300   1.008000   ; qtot 28.973058
  862         c3     28    bbb     C8    862 -0.06455200  12.010000   ; qtot 28.908506
  863         h1     28    bbb    H15    863 0.13554100   1.008000   ; qtot 29.044047
  864         h1     28    bbb    H16    864 0.13554100   1.008000   ; qtot 29.179588
  865         c3     28    bbb     C9    865 -0.06455200  12.010000   ; qtot 29.115036
  866         h1     28    bbb    H17    866 0.13554100   1.008000   ; qtot 29.250577
  867         h1     28    bbb    H18    867 0.13554100   1.008000   ; qtot 29.386118
  868         os     28    bbb     O1    868 -0.62587700  16.000000   ; qtot 28.760241
  869         hn     28    bbb    H19    869 0.23982500   1.008000   ; qtot 29.000066
; residue   29 bbb rtp bbb q 1.0
  870         n4     29    bbb     N1    870 0.03726400  14.010000   ; qtot 29.037330
  871         c3     29    bbb     C1    871 -0.07020100  12.010000   ; qtot 28.967129
  872         hx     29    bbb     H1    872 0.12219000   1.008000   ; qtot 29.089319
  873         hx     29    bbb     H2    873 0.12219000   1.008000   ; qtot 29.211509
  874         c3     29    bbb     C2    874 -0.07020100  12.010000   ; qtot 29.141308
  875         hx     29    bbb     H3    875 0.12219000   1.008000   ; qtot 29.263498
  876         hx     29    bbb     H4    876 0.12219000   1.008000   ; qtot 29.385688
  877         c3     29    bbb     C3    877 -0.39007700  12.010000   ; qtot 28.995611
  878         hx     29    bbb     H5    878 0.14940300   1.008000   ; qtot 29.145014
  879         hx     29    bbb     H6    879 0.14940300   1.008000   ; qtot 29.294417
  880         c3     29    bbb     C4    880 0.18057300  12.010000   ; qtot 29.474990
  881         hc     29    bbb     H7    881 0.01788900   1.008000   ; qtot 29.492879
  882         hc     29    bbb     H8    882 0.01788900   1.008000   ; qtot 29.510768
  883         c3     29    bbb     C5    883 -0.11337700  12.010000   ; qtot 29.397391
  884         hc     29    bbb     H9    884 0.09515400   1.008000   ; qtot 29.492545
  885         hc     29    bbb    H10    885 0.09515400   1.008000   ; qtot 29.587699
  886         c3     29    bbb     C6    886 -0.11337700  12.010000   ; qtot 29.474322
  887         hc     29    bbb    H11    887 0.09515400   1.008000   ; qtot 29.569476
  888         hc     29    bbb    H12    888 0.09515400   1.008000   ; qtot 29.664630
  889         c3     29    bbb     C7    889 0.21842400  12.010000   ; qtot 29.883054
  890         h1     29    bbb    H13    890 0.04500300   1.008000   ; qtot 29.928057
  891         h1     29    bbb    H14    891 0.04500300   1.008000   ; qtot 29.973060
  892         c3     29    bbb     C8    892 -0.06455200  12.010000   ; qtot 29.908508
  893         h1     29    bbb    H15    893 0.13554100   1.008000   ; qtot 30.044049
  894         h1     29    bbb    H16    894 0.13554100   1.008000   ; qtot 30.179590
  895         c3     29    bbb     C9    895 -0.06455200  12.010000   ; qtot 30.115038
  896         h1     29    bbb    H17    896 0.13554100   1.008000   ; qtot 30.250579
  897         h1     29    bbb    H18    897 0.13554100   1.008000   ; qtot 30.386120
  898         os     29    bbb     O1    898 -0.62587700  16.000000   ; qtot 29.760243
  899         hn     29    bbb    H19    899 0.23982500   1.008000   ; qtot 30.000068
; residue   30 bbb rtp bbb q 1.0
  900         n4     30    bbb     N1    900 0.03726400  14.010000   ; qtot 30.037332
  901         c3     30    bbb     C1    901 -0.07020100  12.010000   ; qtot 29.967131
  902         hx     30    bbb     H1    902 0.12219000   1.008000   ; qtot 30.089321
  903         hx     30    bbb     H2    903 0.12219000   1.008000   ; qtot 30.211511
  904         c3     30    bbb     C2    904 -0.07020100  12.010000   ; qtot 30.141310
  905         hx     30    bbb     H3    905 0.12219000   1.008000   ; qtot 30.263500
  906         hx     30    bbb     H4    906 0.12219000   1.008000   ; qtot 30.385690
  907         c3     30    bbb     C3    907 -0.39007700  12.010000   ; qtot 29.995613
  908         hx     30    bbb     H5    908 0.14940300   1.008000   ; qtot 30.145016
  909         hx     30    bbb     H6    909 0.14940300   1.008000   ; qtot 30.294419
  910         c3     30    bbb     C4    910 0.18057300  12.010000   ; qtot 30.474992
  911         hc     30    bbb     H7    911 0.01788900   1.008000   ; qtot 30.492881
  912         hc     30    bbb     H8    912 0.01788900   1.008000   ; qtot 30.510770
  913         c3     30    bbb     C5    913 -0.11337700  12.010000   ; qtot 30.397393
  914         hc     30    bbb     H9    914 0.09515400   1.008000   ; qtot 30.492547
  915         hc     30    bbb    H10    915 0.09515400   1.008000   ; qtot 30.587701
  916         c3     30    bbb     C6    916 -0.11337700  12.010000   ; qtot 30.474324
  917         hc     30    bbb    H11    917 0.09515400   1.008000   ; qtot 30.569478
  918         hc     30    bbb    H12    918 0.09515400   1.008000   ; qtot 30.664632
  919         c3     30    bbb     C7    919 0.21842400  12.010000   ; qtot 30.883056
  920         h1     30    bbb    H13    920 0.04500300   1.008000   ; qtot 30.928059
  921         h1     30    bbb    H14    921 0.04500300   1.008000   ; qtot 30.973062
  922         c3     30    bbb     C8    922 -0.06455200  12.010000   ; qtot 30.908510
  923         h1     30    bbb    H15    923 0.13554100   1.008000   ; qtot 31.044051
  924         h1     30    bbb    H16    924 0.13554100   1.008000   ; qtot 31.179592
  925         c3     30    bbb     C9    925 -0.06455200  12.010000   ; qtot 31.115040
  926         h1     30    bbb    H17    926 0.13554100   1.008000   ; qtot 31.250581
  927         h1     30    bbb    H18    927 0.13554100   1.008000   ; qtot 31.386122
  928         os     30    bbb     O1    928 -0.62587700  16.000000   ; qtot 30.760245
  929         hn     30    bbb    H19    929 0.23982500   1.008000   ; qtot 31.000070
; residue   31 bbb rtp bbb q 1.0
  930         n4     31    bbb     N1    930 0.03726400  14.010000   ; qtot 31.037334
  931         c3     31    bbb     C1    931 -0.07020100  12.010000   ; qtot 30.967133
  932         hx     31    bbb     H1    932 0.12219000   1.008000   ; qtot 31.089323
  933         hx     31    bbb     H2    933 0.12219000   1.008000   ; qtot 31.211513
  934         c3     31    bbb     C2    934 -0.07020100  12.010000   ; qtot 31.141312
  935         hx     31    bbb     H3    935 0.12219000   1.008000   ; qtot 31.263502
  936         hx     31    bbb     H4    936 0.12219000   1.008000   ; qtot 31.385692
  937         c3     31    bbb     C3    937 -0.39007700  12.010000   ; qtot 30.995615
  938         hx     31    bbb     H5    938 0.14940300   1.008000   ; qtot 31.145018
  939         hx     31    bbb     H6    939 0.14940300   1.008000   ; qtot 31.294421
  940         c3     31    bbb     C4    940 0.18057300  12.010000   ; qtot 31.474994
  941         hc     31    bbb     H7    941 0.01788900   1.008000   ; qtot 31.492883
  942         hc     31    bbb     H8    942 0.01788900   1.008000   ; qtot 31.510772
  943         c3     31    bbb     C5    943 -0.11337700  12.010000   ; qtot 31.397395
  944         hc     31    bbb     H9    944 0.09515400   1.008000   ; qtot 31.492549
  945         hc     31    bbb    H10    945 0.09515400   1.008000   ; qtot 31.587703
  946         c3     31    bbb     C6    946 -0.11337700  12.010000   ; qtot 31.474326
  947         hc     31    bbb    H11    947 0.09515400   1.008000   ; qtot 31.569480
  948         hc     31    bbb    H12    948 0.09515400   1.008000   ; qtot 31.664634
  949         c3     31    bbb     C7    949 0.21842400  12.010000   ; qtot 31.883058
  950         h1     31    bbb    H13    950 0.04500300   1.008000   ; qtot 31.928061
  951         h1     31    bbb    H14    951 0.04500300   1.008000   ; qtot 31.973064
  952         c3     31    bbb     C8    952 -0.06455200  12.010000   ; qtot 31.908512
  953         h1     31    bbb    H15    953 0.13554100   1.008000   ; qtot 32.044053
  954         h1     31    bbb    H16    954 0.13554100   1.008000   ; qtot 32.179594
  955         c3     31    bbb     C9    955 -0.06455200  12.010000   ; qtot 32.115042
  956         h1     31    bbb    H17    956 0.13554100   1.008000   ; qtot 32.250583
  957         h1     31    bbb    H18    957 0.13554100   1.008000   ; qtot 32.386124
  958         os     31    bbb     O1    958 -0.62587700  16.000000   ; qtot 31.760247
  959         hn     31    bbb    H19    959 0.23982500   1.008000   ; qtot 32.000072
; residue   32 bbb rtp bbb q 1.0
  960         n4     32    bbb     N1    960 0.03726400  14.010000   ; qtot 32.037336
  961         c3     32    bbb     C1    961 -0.07020100  12.010000   ; qtot 31.967135
  962         hx     32    bbb     H1    962 0.12219000   1.008000   ; qtot 32.089325
  963         hx     32    bbb     H2    963 0.12219000   1.008000   ; qtot 32.211515
  964         c3     32    bbb     C2    964 -0.07020100  12.010000   ; qtot 32.141314
  965         hx     32    bbb     H3    965 0.12219000   1.008000   ; qtot 32.263504
  966         hx     32    bbb     H4    966 0.12219000   1.008000   ; qtot 32.385694
  967         c3     32    bbb     C3    967 -0.39007700  12.010000   ; qtot 31.995617
  968         hx     32    bbb     H5    968 0.14940300   1.008000   ; qtot 32.145020
  969         hx     32    bbb     H6    969 0.14940300   1.008000   ; qtot 32.294423
  970         c3     32    bbb     C4    970 0.18057300  12.010000   ; qtot 32.474996
  971         hc     32    bbb     H7    971 0.01788900   1.008000   ; qtot 32.492885
  972         hc     32    bbb     H8    972 0.01788900   1.008000   ; qtot 32.510774
  973         c3     32    bbb     C5    973 -0.11337700  12.010000   ; qtot 32.397397
  974         hc     32    bbb     H9    974 0.09515400   1.008000   ; qtot 32.492551
  975         hc     32    bbb    H10    975 0.09515400   1.008000   ; qtot 32.587705
  976         c3     32    bbb     C6    976 -0.11337700  12.010000   ; qtot 32.474328
  977         hc     32    bbb    H11    977 0.09515400   1.008000   ; qtot 32.569482
  978         hc     32    bbb    H12    978 0.09515400   1.008000   ; qtot 32.664636
  979         c3     32    bbb     C7    979 0.21842400  12.010000   ; qtot 32.883060
  980         h1     32    bbb    H13    980 0.04500300   1.008000   ; qtot 32.928063
  981         h1     32    bbb    H14    981 0.04500300   1.008000   ; qtot 32.973066
  982         c3     32    bbb     C8    982 -0.06455200  12.010000   ; qtot 32.908514
  983         h1     32    bbb    H15    983 0.13554100   1.008000   ; qtot 33.044055
  984         h1     32    bbb    H16    984 0.13554100   1.008000   ; qtot 33.179596
  985         c3     32    bbb     C9    985 -0.06455200  12.010000   ; qtot 33.115044
  986         h1     32    bbb    H17    986 0.13554100   1.008000   ; qtot 33.250585
  987         h1     32    bbb    H18    987 0.13554100   1.008000   ; qtot 33.386126
  988         os     32    bbb     O1    988 -0.62587700  16.000000   ; qtot 32.760249
  989         hn     32    bbb    H19    989 0.23982500   1.008000   ; qtot 33.000074
; residue   33 bbb rtp bbb q 1.0
  990         n4     33    bbb     N1    990 0.03726400  14.010000   ; qtot 33.037338
  991         c3     33    bbb     C1    991 -0.07020100  12.010000   ; qtot 32.967137
  992         hx     33    bbb     H1    992 0.12219000   1.008000   ; qtot 33.089327
  993         hx     33    bbb     H2    993 0.12219000   1.008000   ; qtot 33.211517
  994         c3     33    bbb     C2    994 -0.07020100  12.010000   ; qtot 33.141316
  995         hx     33    bbb     H3    995 0.12219000   1.008000   ; qtot 33.263506
  996         hx     33    bbb     H4    996 0.12219000   1.008000   ; qtot 33.385696
  997         c3     33    bbb     C3    997 -0.39007700  12.010000   ; qtot 32.995619
  998         hx     33    bbb     H5    998 0.14940300   1.008000   ; qtot 33.145022
  999         hx     33    bbb     H6    999 0.14940300   1.008000   ; qtot 33.294425
 1000         c3     33    bbb     C4   1000 0.18057300  12.010000   ; qtot 33.474998
 1001         hc     33    bbb     H7   1001 0.01788900   1.008000   ; qtot 33.492887
 1002         hc     33    bbb     H8   1002 0.01788900   1.008000   ; qtot 33.510776
 1003         c3     33    bbb     C5   1003 -0.11337700  12.010000   ; qtot 33.397399
 1004         hc     33    bbb     H9   1004 0.09515400   1.008000   ; qtot 33.492553
 1005         hc     33    bbb    H10   1005 0.09515400   1.008000   ; qtot 33.587707
 1006         c3     33    bbb     C6   1006 -0.11337700  12.010000   ; qtot 33.474330
 1007         hc     33    bbb    H11   1007 0.09515400   1.008000   ; qtot 33.569484
 1008         hc     33    bbb    H12   1008 0.09515400   1.008000   ; qtot 33.664638
 1009         c3     33    bbb     C7   1009 0.21842400  12.010000   ; qtot 33.883062
 1010         h1     33    bbb    H13   1010 0.04500300   1.008000   ; qtot 33.928065
 1011         h1     33    bbb    H14   1011 0.04500300   1.008000   ; qtot 33.973068
 1012         c3     33    bbb     C8   1012 -0.06455200  12.010000   ; qtot 33.908516
 1013         h1     33    bbb    H15   1013 0.13554100   1.008000   ; qtot 34.044057
 1014         h1     33    bbb    H16   1014 0.13554100   1.008000   ; qtot 34.179598
 1015         c3     33    bbb     C9   1015 -0.06455200  12.010000   ; qtot 34.115046
 1016         h1     33    bbb    H17   1016 0.13554100   1.008000   ; qtot 34.250587
 1017         h1     33    bbb    H18   1017 0.13554100   1.008000   ; qtot 34.386128
 1018         os     33    bbb     O1   1018 -0.62587700  16.000000   ; qtot 33.760251
 1019         hn     33    bbb    H19   1019 0.23982500   1.008000   ; qtot 34.000076
; residue   34 bbb rtp bbb q 1.0
 1020         n4     34    bbb     N1   1020 0.03726400  14.010000   ; qtot 34.037340
 1021         c3     34    bbb     C1   1021 -0.07020100  12.010000   ; qtot 33.967139
 1022         hx     34    bbb     H1   1022 0.12219000   1.008000   ; qtot 34.089329
 1023         hx     34    bbb     H2   1023 0.12219000   1.008000   ; qtot 34.211519
 1024         c3     34    bbb     C2   1024 -0.07020100  12.010000   ; qtot 34.141318
 1025         hx     34    bbb     H3   1025 0.12219000   1.008000   ; qtot 34.263508
 1026         hx     34    bbb     H4   1026 0.12219000   1.008000   ; qtot 34.385698
 1027         c3     34    bbb     C3   1027 -0.39007700  12.010000   ; qtot 33.995621
 1028         hx     34    bbb     H5   1028 0.14940300   1.008000   ; qtot 34.145024
 1029         hx     34    bbb     H6   1029 0.14940300   1.008000   ; qtot 34.294427
 1030         c3     34    bbb     C4   1030 0.18057300  12.010000   ; qtot 34.475000
 1031         hc     34    bbb     H7   1031 0.01788900   1.008000   ; qtot 34.492889
 1032         hc     34    bbb     H8   1032 0.01788900   1.008000   ; qtot 34.510778
 1033         c3     34    bbb     C5   1033 -0.11337700  12.010000   ; qtot 34.397401
 1034         hc     34    bbb     H9   1034 0.09515400   1.008000   ; qtot 34.492555
 1035         hc     34    bbb    H10   1035 0.09515400   1.008000   ; qtot 34.587709
 1036         c3     34    bbb     C6   1036 -0.11337700  12.010000   ; qtot 34.474332
 1037         hc     34    bbb    H11   1037 0.09515400   1.008000   ; qtot 34.569486
 1038         hc     34    bbb    H12   1038 0.09515400   1.008000   ; qtot 34.664640
 1039         c3     34    bbb     C7   1039 0.21842400  12.010000   ; qtot 34.883064
 1040         h1     34    bbb    H13   1040 0.04500300   1.008000   ; qtot 34.928067
 1041         h1     34    bbb    H14   1041 0.04500300   1.008000   ; qtot 34.973070
 1042         c3     34    bbb     C8   1042 -0.06455200  12.010000   ; qtot 34.908518
 1043         h1     34    bbb    H15   1043 0.13554100   1.008000   ; qtot 35.044059
 1044         h1     34    bbb    H16   1044 0.13554100   1.008000   ; qtot 35.179600
 1045         c3     34    bbb     C9   1045 -0.06455200  12.010000   ; qtot 35.115048
 1046         h1     34    bbb    H17   1046 0.13554100   1.008000   ; qtot 35.250589
 1047         h1     34    bbb    H18   1047 0.13554100   1.008000   ; qtot 35.386130
 1048         os     34    bbb     O1   1048 -0.62587700  16.000000   ; qtot 34.760253
 1049         hn     34    bbb    H19   1049 0.23982500   1.008000   ; qtot 35.000078
; residue   35 bbb rtp bbb q 1.0
 1050         n4     35    bbb     N1   1050 0.03726400  14.010000   ; qtot 35.037342
 1051         c3     35    bbb     C1   1051 -0.07020100  12.010000   ; qtot 34.967141
 1052         hx     35    bbb     H1   1052 0.12219000   1.008000   ; qtot 35.089331
 1053         hx     35    bbb     H2   1053 0.12219000   1.008000   ; qtot 35.211521
 1054         c3     35    bbb     C2   1054 -0.07020100  12.010000   ; qtot 35.141320
 1055         hx     35    bbb     H3   1055 0.12219000   1.008000   ; qtot 35.263510
 1056         hx     35    bbb     H4   1056 0.12219000   1.008000   ; qtot 35.385700
 1057         c3     35    bbb     C3   1057 -0.39007700  12.010000   ; qtot 34.995623
 1058         hx     35    bbb     H5   1058 0.14940300   1.008000   ; qtot 35.145026
 1059         hx     35    bbb     H6   1059 0.14940300   1.008000   ; qtot 35.294429
 1060         c3     35    bbb     C4   1060 0.18057300  12.010000   ; qtot 35.475002
 1061         hc     35    bbb     H7   1061 0.01788900   1.008000   ; qtot 35.492891
 1062         hc     35    bbb     H8   1062 0.01788900   1.008000   ; qtot 35.510780
 1063         c3     35    bbb     C5   1063 -0.11337700  12.010000   ; qtot 35.397403
 1064         hc     35    bbb     H9   1064 0.09515400   1.008000   ; qtot 35.492557
 1065         hc     35    bbb    H10   1065 0.09515400   1.008000   ; qtot 35.587711
 1066         c3     35    bbb     C6   1066 -0.11337700  12.010000   ; qtot 35.474334
 1067         hc     35    bbb    H11   1067 0.09515400   1.008000   ; qtot 35.569488
 1068         hc     35    bbb    H12   1068 0.09515400   1.008000   ; qtot 35.664642
 1069         c3     35    bbb     C7   1069 0.21842400  12.010000   ; qtot 35.883066
 1070         h1     35    bbb    H13   1070 0.04500300   1.008000   ; qtot 35.928069
 1071         h1     35    bbb    H14   1071 0.04500300   1.008000   ; qtot 35.973072
 1072         c3     35    bbb     C8   1072 -0.06455200  12.010000   ; qtot 35.908520
 1073         h1     35    bbb    H15   1073 0.13554100   1.008000   ; qtot 36.044061
 1074         h1     35    bbb    H16   1074 0.13554100   1.008000   ; qtot 36.179602
 1075         c3     35    bbb     C9   1075 -0.06455200  12.010000   ; qtot 36.115050
 1076         h1     35    bbb    H17   1076 0.13554100   1.008000   ; qtot 36.250591
 1077         h1     35    bbb    H18   1077 0.13554100   1.008000   ; qtot 36.386132
 1078         os     35    bbb     O1   1078 -0.62587700  16.000000   ; qtot 35.760255
 1079         hn     35    bbb    H19   1079 0.23982500   1.008000   ; qtot 36.000080
; residue   36 bbb rtp bbb q 1.0
 1080         n4     36    bbb     N1   1080 0.03726400  14.010000   ; qtot 36.037344
 1081         c3     36    bbb     C1   1081 -0.07020100  12.010000   ; qtot 35.967143
 1082         hx     36    bbb     H1   1082 0.12219000   1.008000   ; qtot 36.089333
 1083         hx     36    bbb     H2   1083 0.12219000   1.008000   ; qtot 36.211523
 1084         c3     36    bbb     C2   1084 -0.07020100  12.010000   ; qtot 36.141322
 1085         hx     36    bbb     H3   1085 0.12219000   1.008000   ; qtot 36.263512
 1086         hx     36    bbb     H4   1086 0.12219000   1.008000   ; qtot 36.385702
 1087         c3     36    bbb     C3   1087 -0.39007700  12.010000   ; qtot 35.995625
 1088         hx     36    bbb     H5   1088 0.14940300   1.008000   ; qtot 36.145028
 1089         hx     36    bbb     H6   1089 0.14940300   1.008000   ; qtot 36.294431
 1090         c3     36    bbb     C4   1090 0.18057300  12.010000   ; qtot 36.475004
 1091         hc     36    bbb     H7   1091 0.01788900   1.008000   ; qtot 36.492893
 1092         hc     36    bbb     H8   1092 0.01788900   1.008000   ; qtot 36.510782
 1093         c3     36    bbb     C5   1093 -0.11337700  12.010000   ; qtot 36.397405
 1094         hc     36    bbb     H9   1094 0.09515400   1.008000   ; qtot 36.492559
 1095         hc     36    bbb    H10   1095 0.09515400   1.008000   ; qtot 36.587713
 1096         c3     36    bbb     C6   1096 -0.11337700  12.010000   ; qtot 36.474336
 1097         hc     36    bbb    H11   1097 0.09515400   1.008000   ; qtot 36.569490
 1098         hc     36    bbb    H12   1098 0.09515400   1.008000   ; qtot 36.664644
 1099         c3     36    bbb     C7   1099 0.21842400  12.010000   ; qtot 36.883068
 1100         h1     36    bbb    H13   1100 0.04500300   1.008000   ; qtot 36.928071
 1101         h1     36    bbb    H14   1101 0.04500300   1.008000   ; qtot 36.973074
 1102         c3     36    bbb     C8   1102 -0.06455200  12.010000   ; qtot 36.908522
 1103         h1     36    bbb    H15   1103 0.13554100   1.008000   ; qtot 37.044063
 1104         h1     36    bbb    H16   1104 0.13554100   1.008000   ; qtot 37.179604
 1105         c3     36    bbb     C9   1105 -0.06455200  12.010000   ; qtot 37.115052
 1106         h1     36    bbb    H17   1106 0.13554100   1.008000   ; qtot 37.250593
 1107         h1     36    bbb    H18   1107 0.13554100   1.008000   ; qtot 37.386134
 1108         os     36    bbb     O1   1108 -0.62587700  16.000000   ; qtot 36.760257
 1109         hn     36    bbb    H19   1109 0.23982500   1.008000   ; qtot 37.000082
; residue   37 bbb rtp bbb q 1.0
 1110         n4     37    bbb     N1   1110 0.03726400  14.010000   ; qtot 37.037346
 1111         c3     37    bbb     C1   1111 -0.07020100  12.010000   ; qtot 36.967145
 1112         hx     37    bbb     H1   1112 0.12219000   1.008000   ; qtot 37.089335
 1113         hx     37    bbb     H2   1113 0.12219000   1.008000   ; qtot 37.211525
 1114         c3     37    bbb     C2   1114 -0.07020100  12.010000   ; qtot 37.141324
 1115         hx     37    bbb     H3   1115 0.12219000   1.008000   ; qtot 37.263514
 1116         hx     37    bbb     H4   1116 0.12219000   1.008000   ; qtot 37.385704
 1117         c3     37    bbb     C3   1117 -0.39007700  12.010000   ; qtot 36.995627
 1118         hx     37    bbb     H5   1118 0.14940300   1.008000   ; qtot 37.145030
 1119         hx     37    bbb     H6   1119 0.14940300   1.008000   ; qtot 37.294433
 1120         c3     37    bbb     C4   1120 0.18057300  12.010000   ; qtot 37.475006
 1121         hc     37    bbb     H7   1121 0.01788900   1.008000   ; qtot 37.492895
 1122         hc     37    bbb     H8   1122 0.01788900   1.008000   ; qtot 37.510784
 1123         c3     37    bbb     C5   1123 -0.11337700  12.010000   ; qtot 37.397407
 1124         hc     37    bbb     H9   1124 0.09515400   1.008000   ; qtot 37.492561
 1125         hc     37    bbb    H10   1125 0.09515400   1.008000   ; qtot 37.587715
 1126         c3     37    bbb     C6   1126 -0.11337700  12.010000   ; qtot 37.474338
 1127         hc     37    bbb    H11   1127 0.09515400   1.008000   ; qtot 37.569492
 1128         hc     37    bbb    H12   1128 0.09515400   1.008000   ; qtot 37.664646
 1129         c3     37    bbb     C7   1129 0.21842400  12.010000   ; qtot 37.883070
 1130         h1     37    bbb    H13   1130 0.04500300   1.008000   ; qtot 37.928073
 1131         h1     37    bbb    H14   1131 0.04500300   1.008000   ; qtot 37.973076
 1132         c3     37    bbb     C8   1132 -0.06455200  12.010000   ; qtot 37.908524
 1133         h1     37    bbb    H15   1133 0.13554100   1.008000   ; qtot 38.044065
 1134         h1     37    bbb    H16   1134 0.13554100   1.008000   ; qtot 38.179606
 1135         c3     37    bbb     C9   1135 -0.06455200  12.010000   ; qtot 38.115054
 1136         h1     37    bbb    H17   1136 0.13554100   1.008000   ; qtot 38.250595
 1137         h1     37    bbb    H18   1137 0.13554100   1.008000   ; qtot 38.386136
 1138         os     37    bbb     O1   1138 -0.62587700  16.000000   ; qtot 37.760259
 1139         hn     37    bbb    H19   1139 0.23982500   1.008000   ; qtot 38.000084
; residue   38 bbb rtp bbb q 1.0
 1140         n4     38    bbb     N1   1140 0.03726400  14.010000   ; qtot 38.037348
 1141         c3     38    bbb     C1   1141 -0.07020100  12.010000   ; qtot 37.967147
 1142         hx     38    bbb     H1   1142 0.12219000   1.008000   ; qtot 38.089337
 1143         hx     38    bbb     H2   1143 0.12219000   1.008000   ; qtot 38.211527
 1144         c3     38    bbb     C2   1144 -0.07020100  12.010000   ; qtot 38.141326
 1145         hx     38    bbb     H3   1145 0.12219000   1.008000   ; qtot 38.263516
 1146         hx     38    bbb     H4   1146 0.12219000   1.008000   ; qtot 38.385706
 1147         c3     38    bbb     C3   1147 -0.39007700  12.010000   ; qtot 37.995629
 1148         hx     38    bbb     H5   1148 0.14940300   1.008000   ; qtot 38.145032
 1149         hx     38    bbb     H6   1149 0.14940300   1.008000   ; qtot 38.294435
 1150         c3     38    bbb     C4   1150 0.18057300  12.010000   ; qtot 38.475008
 1151         hc     38    bbb     H7   1151 0.01788900   1.008000   ; qtot 38.492897
 1152         hc     38    bbb     H8   1152 0.01788900   1.008000   ; qtot 38.510786
 1153         c3     38    bbb     C5   1153 -0.11337700  12.010000   ; qtot 38.397409
 1154         hc     38    bbb     H9   1154 0.09515400   1.008000   ; qtot 38.492563
 1155         hc     38    bbb    H10   1155 0.09515400   1.008000   ; qtot 38.587717
 1156         c3     38    bbb     C6   1156 -0.11337700  12.010000   ; qtot 38.474340
 1157         hc     38    bbb    H11   1157 0.09515400   1.008000   ; qtot 38.569494
 1158         hc     38    bbb    H12   1158 0.09515400   1.008000   ; qtot 38.664648
 1159         c3     38    bbb     C7   1159 0.21842400  12.010000   ; qtot 38.883072
 1160         h1     38    bbb    H13   1160 0.04500300   1.008000   ; qtot 38.928075
 1161         h1     38    bbb    H14   1161 0.04500300   1.008000   ; qtot 38.973078
 1162         c3     38    bbb     C8   1162 -0.06455200  12.010000   ; qtot 38.908526
 1163         h1     38    bbb    H15   1163 0.13554100   1.008000   ; qtot 39.044067
 1164         h1     38    bbb    H16   1164 0.13554100   1.008000   ; qtot 39.179608
 1165         c3     38    bbb     C9   1165 -0.06455200  12.010000   ; qtot 39.115056
 1166         h1     38    bbb    H17   1166 0.13554100   1.008000   ; qtot 39.250597
 1167         h1     38    bbb    H18   1167 0.13554100   1.008000   ; qtot 39.386138
 1168         os     38    bbb     O1   1168 -0.62587700  16.000000   ; qtot 38.760261
 1169         hn     38    bbb    H19   1169 0.23982500   1.008000   ; qtot 39.000086
; residue   39 bbb rtp bbb q 1.0
 1170         n4     39    bbb     N1   1170 0.03726400  14.010000   ; qtot 39.037350
 1171         c3     39    bbb     C1   1171 -0.07020100  12.010000   ; qtot 38.967149
 1172         hx     39    bbb     H1   1172 0.12219000   1.008000   ; qtot 39.089339
 1173         hx     39    bbb     H2   1173 0.12219000   1.008000   ; qtot 39.211529
 1174         c3     39    bbb     C2   1174 -0.07020100  12.010000   ; qtot 39.141328
 1175         hx     39    bbb     H3   1175 0.12219000   1.008000   ; qtot 39.263518
 1176         hx     39    bbb     H4   1176 0.12219000   1.008000   ; qtot 39.385708
 1177         c3     39    bbb     C3   1177 -0.39007700  12.010000   ; qtot 38.995631
 1178         hx     39    bbb     H5   1178 0.14940300   1.008000   ; qtot 39.145034
 1179         hx     39    bbb     H6   1179 0.14940300   1.008000   ; qtot 39.294437
 1180         c3     39    bbb     C4   1180 0.18057300  12.010000   ; qtot 39.475010
 1181         hc     39    bbb     H7   1181 0.01788900   1.008000   ; qtot 39.492899
 1182         hc     39    bbb     H8   1182 0.01788900   1.008000   ; qtot 39.510788
 1183         c3     39    bbb     C5   1183 -0.11337700  12.010000   ; qtot 39.397411
 1184         hc     39    bbb     H9   1184 0.09515400   1.008000   ; qtot 39.492565
 1185         hc     39    bbb    H10   1185 0.09515400   1.008000   ; qtot 39.587719
 1186         c3     39    bbb     C6   1186 -0.11337700  12.010000   ; qtot 39.474342
 1187         hc     39    bbb    H11   1187 0.09515400   1.008000   ; qtot 39.569496
 1188         hc     39    bbb    H12   1188 0.09515400   1.008000   ; qtot 39.664650
 1189         c3     39    bbb     C7   1189 0.21842400  12.010000   ; qtot 39.883074
 1190         h1     39    bbb    H13   1190 0.04500300   1.008000   ; qtot 39.928077
 1191         h1     39    bbb    H14   1191 0.04500300   1.008000   ; qtot 39.973080
 1192         c3     39    bbb     C8   1192 -0.06455200  12.010000   ; qtot 39.908528
 1193         h1     39    bbb    H15   1193 0.13554100   1.008000   ; qtot 40.044069
 1194         h1     39    bbb    H16   1194 0.13554100   1.008000   ; qtot 40.179610
 1195         c3     39    bbb     C9   1195 -0.06455200  12.010000   ; qtot 40.115058
 1196         h1     39    bbb    H17   1196 0.13554100   1.008000   ; qtot 40.250599
 1197         h1     39    bbb    H18   1197 0.13554100   1.008000   ; qtot 40.386140
 1198         os     39    bbb     O1   1198 -0.62587700  16.000000   ; qtot 39.760263
 1199         hn     39    bbb    H19   1199 0.23982500   1.008000   ; qtot 40.000088
; residue   40 bbb rtp bbb q 1.0
 1200         n4     40    bbb     N1   1200 0.03726400  14.010000   ; qtot 40.037352
 1201         c3     40    bbb     C1   1201 -0.07020100  12.010000   ; qtot 39.967151
 1202         hx     40    bbb     H1   1202 0.12219000   1.008000   ; qtot 40.089341
 1203         hx     40    bbb     H2   1203 0.12219000   1.008000   ; qtot 40.211531
 1204         c3     40    bbb     C2   1204 -0.07020100  12.010000   ; qtot 40.141330
 1205         hx     40    bbb     H3   1205 0.12219000   1.008000   ; qtot 40.263520
 1206         hx     40    bbb     H4   1206 0.12219000   1.008000   ; qtot 40.385710
 1207         c3     40    bbb     C3   1207 -0.39007700  12.010000   ; qtot 39.995633
 1208         hx     40    bbb     H5   1208 0.14940300   1.008000   ; qtot 40.145036
 1209         hx     40    bbb     H6   1209 0.14940300   1.008000   ; qtot 40.294439
 1210         c3     40    bbb     C4   1210 0.18057300  12.010000   ; qtot 40.475012
 1211         hc     40    bbb     H7   1211 0.01788900   1.008000   ; qtot 40.492901
 1212         hc     40    bbb     H8   1212 0.01788900   1.008000   ; qtot 40.510790
 1213         c3     40    bbb     C5   1213 -0.11337700  12.010000   ; qtot 40.397413
 1214         hc     40    bbb     H9   1214 0.09515400   1.008000   ; qtot 40.492567
 1215         hc     40    bbb    H10   1215 0.09515400   1.008000   ; qtot 40.587721
 1216         c3     40    bbb     C6   1216 -0.11337700  12.010000   ; qtot 40.474344
 1217         hc     40    bbb    H11   1217 0.09515400   1.008000   ; qtot 40.569498
 1218         hc     40    bbb    H12   1218 0.09515400   1.008000   ; qtot 40.664652
 1219         c3     40    bbb     C7   1219 0.21842400  12.010000   ; qtot 40.883076
 1220         h1     40    bbb    H13   1220 0.04500300   1.008000   ; qtot 40.928079
 1221         h1     40    bbb    H14   1221 0.04500300   1.008000   ; qtot 40.973082
 1222         c3     40    bbb     C8   1222 -0.06455200  12.010000   ; qtot 40.908530
 1223         h1     40    bbb    H15   1223 0.13554100   1.008000   ; qtot 41.044071
 1224         h1     40    bbb    H16   1224 0.13554100   1.008000   ; qtot 41.179612
 1225         c3     40    bbb     C9   1225 -0.06455200  12.010000   ; qtot 41.115060
 1226         h1     40    bbb    H17   1226 0.13554100   1.008000   ; qtot 41.250601
 1227         h1     40    bbb    H18   1227 0.13554100   1.008000   ; qtot 41.386142
 1228         os     40    bbb     O1   1228 -0.62587700  16.000000   ; qtot 40.760265
 1229         hn     40    bbb    H19   1229 0.23982500   1.008000   ; qtot 41.000090
; residue   41 bbb rtp bbb q 1.0
 1230         n4     41    bbb     N1   1230 0.03726400  14.010000   ; qtot 41.037354
 1231         c3     41    bbb     C1   1231 -0.07020100  12.010000   ; qtot 40.967153
 1232         hx     41    bbb     H1   1232 0.12219000   1.008000   ; qtot 41.089343
 1233         hx     41    bbb     H2   1233 0.12219000   1.008000   ; qtot 41.211533
 1234         c3     41    bbb     C2   1234 -0.07020100  12.010000   ; qtot 41.141332
 1235         hx     41    bbb     H3   1235 0.12219000   1.008000   ; qtot 41.263522
 1236         hx     41    bbb     H4   1236 0.12219000   1.008000   ; qtot 41.385712
 1237         c3     41    bbb     C3   1237 -0.39007700  12.010000   ; qtot 40.995635
 1238         hx     41    bbb     H5   1238 0.14940300   1.008000   ; qtot 41.145038
 1239         hx     41    bbb     H6   1239 0.14940300   1.008000   ; qtot 41.294441
 1240         c3     41    bbb     C4   1240 0.18057300  12.010000   ; qtot 41.475014
 1241         hc     41    bbb     H7   1241 0.01788900   1.008000   ; qtot 41.492903
 1242         hc     41    bbb     H8   1242 0.01788900   1.008000   ; qtot 41.510792
 1243         c3     41    bbb     C5   1243 -0.11337700  12.010000   ; qtot 41.397415
 1244         hc     41    bbb     H9   1244 0.09515400   1.008000   ; qtot 41.492569
 1245         hc     41    bbb    H10   1245 0.09515400   1.008000   ; qtot 41.587723
 1246         c3     41    bbb     C6   1246 -0.11337700  12.010000   ; qtot 41.474346
 1247         hc     41    bbb    H11   1247 0.09515400   1.008000   ; qtot 41.569500
 1248         hc     41    bbb    H12   1248 0.09515400   1.008000   ; qtot 41.664654
 1249         c3     41    bbb     C7   1249 0.21842400  12.010000   ; qtot 41.883078
 1250         h1     41    bbb    H13   1250 0.04500300   1.008000   ; qtot 41.928081
 1251         h1     41    bbb    H14   1251 0.04500300   1.008000   ; qtot 41.973084
 1252         c3     41    bbb     C8   1252 -0.06455200  12.010000   ; qtot 41.908532
 1253         h1     41    bbb    H15   1253 0.13554100   1.008000   ; qtot 42.044073
 1254         h1     41    bbb    H16   1254 0.13554100   1.008000   ; qtot 42.179614
 1255         c3     41    bbb     C9   1255 -0.06455200  12.010000   ; qtot 42.115062
 1256         h1     41    bbb    H17   1256 0.13554100   1.008000   ; qtot 42.250603
 1257         h1     41    bbb    H18   1257 0.13554100   1.008000   ; qtot 42.386144
 1258         os     41    bbb     O1   1258 -0.62587700  16.000000   ; qtot 41.760267
 1259         hn     41    bbb    H19   1259 0.23982500   1.008000   ; qtot 42.000092
; residue   42 bbb rtp bbb q 1.0
 1260         n4     42    bbb     N1   1260 0.03726400  14.010000   ; qtot 42.037356
 1261         c3     42    bbb     C1   1261 -0.07020100  12.010000   ; qtot 41.967155
 1262         hx     42    bbb     H1   1262 0.12219000   1.008000   ; qtot 42.089345
 1263         hx     42    bbb     H2   1263 0.12219000   1.008000   ; qtot 42.211535
 1264         c3     42    bbb     C2   1264 -0.07020100  12.010000   ; qtot 42.141334
 1265         hx     42    bbb     H3   1265 0.12219000   1.008000   ; qtot 42.263524
 1266         hx     42    bbb     H4   1266 0.12219000   1.008000   ; qtot 42.385714
 1267         c3     42    bbb     C3   1267 -0.39007700  12.010000   ; qtot 41.995637
 1268         hx     42    bbb     H5   1268 0.14940300   1.008000   ; qtot 42.145040
 1269         hx     42    bbb     H6   1269 0.14940300   1.008000   ; qtot 42.294443
 1270         c3     42    bbb     C4   1270 0.18057300  12.010000   ; qtot 42.475016
 1271         hc     42    bbb     H7   1271 0.01788900   1.008000   ; qtot 42.492905
 1272         hc     42    bbb     H8   1272 0.01788900   1.008000   ; qtot 42.510794
 1273         c3     42    bbb     C5   1273 -0.11337700  12.010000   ; qtot 42.397417
 1274         hc     42    bbb     H9   1274 0.09515400   1.008000   ; qtot 42.492571
 1275         hc     42    bbb    H10   1275 0.09515400   1.008000   ; qtot 42.587725
 1276         c3     42    bbb     C6   1276 -0.11337700  12.010000   ; qtot 42.474348
 1277         hc     42    bbb    H11   1277 0.09515400   1.008000   ; qtot 42.569502
 1278         hc     42    bbb    H12   1278 0.09515400   1.008000   ; qtot 42.664656
 1279         c3     42    bbb     C7   1279 0.21842400  12.010000   ; qtot 42.883080
 1280         h1     42    bbb    H13   1280 0.04500300   1.008000   ; qtot 42.928083
 1281         h1     42    bbb    H14   1281 0.04500300   1.008000   ; qtot 42.973086
 1282         c3     42    bbb     C8   1282 -0.06455200  12.010000   ; qtot 42.908534
 1283         h1     42    bbb    H15   1283 0.13554100   1.008000   ; qtot 43.044075
 1284         h1     42    bbb    H16   1284 0.13554100   1.008000   ; qtot 43.179616
 1285         c3     42    bbb     C9   1285 -0.06455200  12.010000   ; qtot 43.115064
 1286         h1     42    bbb    H17   1286 0.13554100   1.008000   ; qtot 43.250605
 1287         h1     42    bbb    H18   1287 0.13554100   1.008000   ; qtot 43.386146
 1288         os     42    bbb     O1   1288 -0.62587700  16.000000   ; qtot 42.760269
 1289         hn     42    bbb    H19   1289 0.23982500   1.008000   ; qtot 43.000094
; residue   43 bbb rtp bbb q 1.0
 1290         n4     43    bbb     N1   1290 0.03726400  14.010000   ; qtot 43.037358
 1291         c3     43    bbb     C1   1291 -0.07020100  12.010000   ; qtot 42.967157
 1292         hx     43    bbb     H1   1292 0.12219000   1.008000   ; qtot 43.089347
 1293         hx     43    bbb     H2   1293 0.12219000   1.008000   ; qtot 43.211537
 1294         c3     43    bbb     C2   1294 -0.07020100  12.010000   ; qtot 43.141336
 1295         hx     43    bbb     H3   1295 0.12219000   1.008000   ; qtot 43.263526
 1296         hx     43    bbb     H4   1296 0.12219000   1.008000   ; qtot 43.385716
 1297         c3     43    bbb     C3   1297 -0.39007700  12.010000   ; qtot 42.995639
 1298         hx     43    bbb     H5   1298 0.14940300   1.008000   ; qtot 43.145042
 1299         hx     43    bbb     H6   1299 0.14940300   1.008000   ; qtot 43.294445
 1300         c3     43    bbb     C4   1300 0.18057300  12.010000   ; qtot 43.475018
 1301         hc     43    bbb     H7   1301 0.01788900   1.008000   ; qtot 43.492907
 1302         hc     43    bbb     H8   1302 0.01788900   1.008000   ; qtot 43.510796
 1303         c3     43    bbb     C5   1303 -0.11337700  12.010000   ; qtot 43.397419
 1304         hc     43    bbb     H9   1304 0.09515400   1.008000   ; qtot 43.492573
 1305         hc     43    bbb    H10   1305 0.09515400   1.008000   ; qtot 43.587727
 1306         c3     43    bbb     C6   1306 -0.11337700  12.010000   ; qtot 43.474350
 1307         hc     43    bbb    H11   1307 0.09515400   1.008000   ; qtot 43.569504
 1308         hc     43    bbb    H12   1308 0.09515400   1.008000   ; qtot 43.664658
 1309         c3     43    bbb     C7   1309 0.21842400  12.010000   ; qtot 43.883082
 1310         h1     43    bbb    H13   1310 0.04500300   1.008000   ; qtot 43.928085
 1311         h1     43    bbb    H14   1311 0.04500300   1.008000   ; qtot 43.973088
 1312         c3     43    bbb     C8   1312 -0.06455200  12.010000   ; qtot 43.908536
 1313         h1     43    bbb    H15   1313 0.13554100   1.008000   ; qtot 44.044077
 1314         h1     43    bbb    H16   1314 0.13554100   1.008000   ; qtot 44.179618
 1315         c3     43    bbb     C9   1315 -0.06455200  12.010000   ; qtot 44.115066
 1316         h1     43    bbb    H17   1316 0.13554100   1.008000   ; qtot 44.250607
 1317         h1     43    bbb    H18   1317 0.13554100   1.008000   ; qtot 44.386148
 1318         os     43    bbb     O1   1318 -0.62587700  16.000000   ; qtot 43.760271
 1319         hn     43    bbb    H19   1319 0.23982500   1.008000   ; qtot 44.000096
; residue   44 bbb rtp bbb q 1.0
 1320         n4     44    bbb     N1   1320 0.03726400  14.010000   ; qtot 44.037360
 1321         c3     44    bbb     C1   1321 -0.07020100  12.010000   ; qtot 43.967159
 1322         hx     44    bbb     H1   1322 0.12219000   1.008000   ; qtot 44.089349
 1323         hx     44    bbb     H2   1323 0.12219000   1.008000   ; qtot 44.211539
 1324         c3     44    bbb     C2   1324 -0.07020100  12.010000   ; qtot 44.141338
 1325         hx     44    bbb     H3   1325 0.12219000   1.008000   ; qtot 44.263528
 1326         hx     44    bbb     H4   1326 0.12219000   1.008000   ; qtot 44.385718
 1327         c3     44    bbb     C3   1327 -0.39007700  12.010000   ; qtot 43.995641
 1328         hx     44    bbb     H5   1328 0.14940300   1.008000   ; qtot 44.145044
 1329         hx     44    bbb     H6   1329 0.14940300   1.008000   ; qtot 44.294447
 1330         c3     44    bbb     C4   1330 0.18057300  12.010000   ; qtot 44.475020
 1331         hc     44    bbb     H7   1331 0.01788900   1.008000   ; qtot 44.492909
 1332         hc     44    bbb     H8   1332 0.01788900   1.008000   ; qtot 44.510798
 1333         c3     44    bbb     C5   1333 -0.11337700  12.010000   ; qtot 44.397421
 1334         hc     44    bbb     H9   1334 0.09515400   1.008000   ; qtot 44.492575
 1335         hc     44    bbb    H10   1335 0.09515400   1.008000   ; qtot 44.587729
 1336         c3     44    bbb     C6   1336 -0.11337700  12.010000   ; qtot 44.474352
 1337         hc     44    bbb    H11   1337 0.09515400   1.008000   ; qtot 44.569506
 1338         hc     44    bbb    H12   1338 0.09515400   1.008000   ; qtot 44.664660
 1339         c3     44    bbb     C7   1339 0.21842400  12.010000   ; qtot 44.883084
 1340         h1     44    bbb    H13   1340 0.04500300   1.008000   ; qtot 44.928087
 1341         h1     44    bbb    H14   1341 0.04500300   1.008000   ; qtot 44.973090
 1342         c3     44    bbb     C8   1342 -0.06455200  12.010000   ; qtot 44.908538
 1343         h1     44    bbb    H15   1343 0.13554100   1.008000   ; qtot 45.044079
 1344         h1     44    bbb    H16   1344 0.13554100   1.008000   ; qtot 45.179620
 1345         c3     44    bbb     C9   1345 -0.06455200  12.010000   ; qtot 45.115068
 1346         h1     44    bbb    H17   1346 0.13554100   1.008000   ; qtot 45.250609
 1347         h1     44    bbb    H18   1347 0.13554100   1.008000   ; qtot 45.386150
 1348         os     44    bbb     O1   1348 -0.62587700  16.000000   ; qtot 44.760273
 1349         hn     44    bbb    H19   1349 0.23982500   1.008000   ; qtot 45.000098
; residue   45 bbb rtp bbb q 1.0
 1350         n4     45    bbb     N1   1350 0.03726400  14.010000   ; qtot 45.037362
 1351         c3     45    bbb     C1   1351 -0.07020100  12.010000   ; qtot 44.967161
 1352         hx     45    bbb     H1   1352 0.12219000   1.008000   ; qtot 45.089351
 1353         hx     45    bbb     H2   1353 0.12219000   1.008000   ; qtot 45.211541
 1354         c3     45    bbb     C2   1354 -0.07020100  12.010000   ; qtot 45.141340
 1355         hx     45    bbb     H3   1355 0.12219000   1.008000   ; qtot 45.263530
 1356         hx     45    bbb     H4   1356 0.12219000   1.008000   ; qtot 45.385720
 1357         c3     45    bbb     C3   1357 -0.39007700  12.010000   ; qtot 44.995643
 1358         hx     45    bbb     H5   1358 0.14940300   1.008000   ; qtot 45.145046
 1359         hx     45    bbb     H6   1359 0.14940300   1.008000   ; qtot 45.294449
 1360         c3     45    bbb     C4   1360 0.18057300  12.010000   ; qtot 45.475022
 1361         hc     45    bbb     H7   1361 0.01788900   1.008000   ; qtot 45.492911
 1362         hc     45    bbb     H8   1362 0.01788900   1.008000   ; qtot 45.510800
 1363         c3     45    bbb     C5   1363 -0.11337700  12.010000   ; qtot 45.397423
 1364         hc     45    bbb     H9   1364 0.09515400   1.008000   ; qtot 45.492577
 1365         hc     45    bbb    H10   1365 0.09515400   1.008000   ; qtot 45.587731
 1366         c3     45    bbb     C6   1366 -0.11337700  12.010000   ; qtot 45.474354
 1367         hc     45    bbb    H11   1367 0.09515400   1.008000   ; qtot 45.569508
 1368         hc     45    bbb    H12   1368 0.09515400   1.008000   ; qtot 45.664662
 1369         c3     45    bbb     C7   1369 0.21842400  12.010000   ; qtot 45.883086
 1370         h1     45    bbb    H13   1370 0.04500300   1.008000   ; qtot 45.928089
 1371         h1     45    bbb    H14   1371 0.04500300   1.008000   ; qtot 45.973092
 1372         c3     45    bbb     C8   1372 -0.06455200  12.010000   ; qtot 45.908540
 1373         h1     45    bbb    H15   1373 0.13554100   1.008000   ; qtot 46.044081
 1374         h1     45    bbb    H16   1374 0.13554100   1.008000   ; qtot 46.179622
 1375         c3     45    bbb     C9   1375 -0.06455200  12.010000   ; qtot 46.115070
 1376         h1     45    bbb    H17   1376 0.13554100   1.008000   ; qtot 46.250611
 1377         h1     45    bbb    H18   1377 0.13554100   1.008000   ; qtot 46.386152
 1378         os     45    bbb     O1   1378 -0.62587700  16.000000   ; qtot 45.760275
 1379         hn     45    bbb    H19   1379 0.23982500   1.008000   ; qtot 46.000100
; residue   46 bbb rtp bbb q 1.0
 1380         n4     46    bbb     N1   1380 0.03726400  14.010000   ; qtot 46.037364
 1381         c3     46    bbb     C1   1381 -0.07020100  12.010000   ; qtot 45.967163
 1382         hx     46    bbb     H1   1382 0.12219000   1.008000   ; qtot 46.089353
 1383         hx     46    bbb     H2   1383 0.12219000   1.008000   ; qtot 46.211543
 1384         c3     46    bbb     C2   1384 -0.07020100  12.010000   ; qtot 46.141342
 1385         hx     46    bbb     H3   1385 0.12219000   1.008000   ; qtot 46.263532
 1386         hx     46    bbb     H4   1386 0.12219000   1.008000   ; qtot 46.385722
 1387         c3     46    bbb     C3   1387 -0.39007700  12.010000   ; qtot 45.995645
 1388         hx     46    bbb     H5   1388 0.14940300   1.008000   ; qtot 46.145048
 1389         hx     46    bbb     H6   1389 0.14940300   1.008000   ; qtot 46.294451
 1390         c3     46    bbb     C4   1390 0.18057300  12.010000   ; qtot 46.475024
 1391         hc     46    bbb     H7   1391 0.01788900   1.008000   ; qtot 46.492913
 1392         hc     46    bbb     H8   1392 0.01788900   1.008000   ; qtot 46.510802
 1393         c3     46    bbb     C5   1393 -0.11337700  12.010000   ; qtot 46.397425
 1394         hc     46    bbb     H9   1394 0.09515400   1.008000   ; qtot 46.492579
 1395         hc     46    bbb    H10   1395 0.09515400   1.008000   ; qtot 46.587733
 1396         c3     46    bbb     C6   1396 -0.11337700  12.010000   ; qtot 46.474356
 1397         hc     46    bbb    H11   1397 0.09515400   1.008000   ; qtot 46.569510
 1398         hc     46    bbb    H12   1398 0.09515400   1.008000   ; qtot 46.664664
 1399         c3     46    bbb     C7   1399 0.21842400  12.010000   ; qtot 46.883088
 1400         h1     46    bbb    H13   1400 0.04500300   1.008000   ; qtot 46.928091
 1401         h1     46    bbb    H14   1401 0.04500300   1.008000   ; qtot 46.973094
 1402         c3     46    bbb     C8   1402 -0.06455200  12.010000   ; qtot 46.908542
 1403         h1     46    bbb    H15   1403 0.13554100   1.008000   ; qtot 47.044083
 1404         h1     46    bbb    H16   1404 0.13554100   1.008000   ; qtot 47.179624
 1405         c3     46    bbb     C9   1405 -0.06455200  12.010000   ; qtot 47.115072
 1406         h1     46    bbb    H17   1406 0.13554100   1.008000   ; qtot 47.250613
 1407         h1     46    bbb    H18   1407 0.13554100   1.008000   ; qtot 47.386154
 1408         os     46    bbb     O1   1408 -0.62587700  16.000000   ; qtot 46.760277
 1409         hn     46    bbb    H19   1409 0.23982500   1.008000   ; qtot 47.000102
; residue   47 bbb rtp bbb q 1.0
 1410         n4     47    bbb     N1   1410 0.03726400  14.010000   ; qtot 47.037366
 1411         c3     47    bbb     C1   1411 -0.07020100  12.010000   ; qtot 46.967165
 1412         hx     47    bbb     H1   1412 0.12219000   1.008000   ; qtot 47.089355
 1413         hx     47    bbb     H2   1413 0.12219000   1.008000   ; qtot 47.211545
 1414         c3     47    bbb     C2   1414 -0.07020100  12.010000   ; qtot 47.141344
 1415         hx     47    bbb     H3   1415 0.12219000   1.008000   ; qtot 47.263534
 1416         hx     47    bbb     H4   1416 0.12219000   1.008000   ; qtot 47.385724
 1417         c3     47    bbb     C3   1417 -0.39007700  12.010000   ; qtot 46.995647
 1418         hx     47    bbb     H5   1418 0.14940300   1.008000   ; qtot 47.145050
 1419         hx     47    bbb     H6   1419 0.14940300   1.008000   ; qtot 47.294453
 1420         c3     47    bbb     C4   1420 0.18057300  12.010000   ; qtot 47.475026
 1421         hc     47    bbb     H7   1421 0.01788900   1.008000   ; qtot 47.492915
 1422         hc     47    bbb     H8   1422 0.01788900   1.008000   ; qtot 47.510804
 1423         c3     47    bbb     C5   1423 -0.11337700  12.010000   ; qtot 47.397427
 1424         hc     47    bbb     H9   1424 0.09515400   1.008000   ; qtot 47.492581
 1425         hc     47    bbb    H10   1425 0.09515400   1.008000   ; qtot 47.587735
 1426         c3     47    bbb     C6   1426 -0.11337700  12.010000   ; qtot 47.474358
 1427         hc     47    bbb    H11   1427 0.09515400   1.008000   ; qtot 47.569512
 1428         hc     47    bbb    H12   1428 0.09515400   1.008000   ; qtot 47.664666
 1429         c3     47    bbb     C7   1429 0.21842400  12.010000   ; qtot 47.883090
 1430         h1     47    bbb    H13   1430 0.04500300   1.008000   ; qtot 47.928093
 1431         h1     47    bbb    H14   1431 0.04500300   1.008000   ; qtot 47.973096
 1432         c3     47    bbb     C8   1432 -0.06455200  12.010000   ; qtot 47.908544
 1433         h1     47    bbb    H15   1433 0.13554100   1.008000   ; qtot 48.044085
 1434         h1     47    bbb    H16   1434 0.13554100   1.008000   ; qtot 48.179626
 1435         c3     47    bbb     C9   1435 -0.06455200  12.010000   ; qtot 48.115074
 1436         h1     47    bbb    H17   1436 0.13554100   1.008000   ; qtot 48.250615
 1437         h1     47    bbb    H18   1437 0.13554100   1.008000   ; qtot 48.386156
 1438         os     47    bbb     O1   1438 -0.62587700  16.000000   ; qtot 47.760279
 1439         hn     47    bbb    H19   1439 0.23982500   1.008000   ; qtot 48.000104
; residue   48 bbb rtp bbb q 1.0
 1440         n4     48    bbb     N1   1440 0.03726400  14.010000   ; qtot 48.037368
 1441         c3     48    bbb     C1   1441 -0.07020100  12.010000   ; qtot 47.967167
 1442         hx     48    bbb     H1   1442 0.12219000   1.008000   ; qtot 48.089357
 1443         hx     48    bbb     H2   1443 0.12219000   1.008000   ; qtot 48.211547
 1444         c3     48    bbb     C2   1444 -0.07020100  12.010000   ; qtot 48.141346
 1445         hx     48    bbb     H3   1445 0.12219000   1.008000   ; qtot 48.263536
 1446         hx     48    bbb     H4   1446 0.12219000   1.008000   ; qtot 48.385726
 1447         c3     48    bbb     C3   1447 -0.39007700  12.010000   ; qtot 47.995649
 1448         hx     48    bbb     H5   1448 0.14940300   1.008000   ; qtot 48.145052
 1449         hx     48    bbb     H6   1449 0.14940300   1.008000   ; qtot 48.294455
 1450         c3     48    bbb     C4   1450 0.18057300  12.010000   ; qtot 48.475028
 1451         hc     48    bbb     H7   1451 0.01788900   1.008000   ; qtot 48.492917
 1452         hc     48    bbb     H8   1452 0.01788900   1.008000   ; qtot 48.510806
 1453         c3     48    bbb     C5   1453 -0.11337700  12.010000   ; qtot 48.397429
 1454         hc     48    bbb     H9   1454 0.09515400   1.008000   ; qtot 48.492583
 1455         hc     48    bbb    H10   1455 0.09515400   1.008000   ; qtot 48.587737
 1456         c3     48    bbb     C6   1456 -0.11337700  12.010000   ; qtot 48.474360
 1457         hc     48    bbb    H11   1457 0.09515400   1.008000   ; qtot 48.569514
 1458         hc     48    bbb    H12   1458 0.09515400   1.008000   ; qtot 48.664668
 1459         c3     48    bbb     C7   1459 0.21842400  12.010000   ; qtot 48.883092
 1460         h1     48    bbb    H13   1460 0.04500300   1.008000   ; qtot 48.928095
 1461         h1     48    bbb    H14   1461 0.04500300   1.008000   ; qtot 48.973098
 1462         c3     48    bbb     C8   1462 -0.06455200  12.010000   ; qtot 48.908546
 1463         h1     48    bbb    H15   1463 0.13554100   1.008000   ; qtot 49.044087
 1464         h1     48    bbb    H16   1464 0.13554100   1.008000   ; qtot 49.179628
 1465         c3     48    bbb     C9   1465 -0.06455200  12.010000   ; qtot 49.115076
 1466         h1     48    bbb    H17   1466 0.13554100   1.008000   ; qtot 49.250617
 1467         h1     48    bbb    H18   1467 0.13554100   1.008000   ; qtot 49.386158
 1468         os     48    bbb     O1   1468 -0.62587700  16.000000   ; qtot 48.760281
 1469         hn     48    bbb    H19   1469 0.23982500   1.008000   ; qtot 49.000106
; residue   49 bbb rtp bbb q 1.0
 1470         n4     49    bbb     N1   1470 0.03726400  14.010000   ; qtot 49.037370
 1471         c3     49    bbb     C1   1471 -0.07020100  12.010000   ; qtot 48.967169
 1472         hx     49    bbb     H1   1472 0.12219000   1.008000   ; qtot 49.089359
 1473         hx     49    bbb     H2   1473 0.12219000   1.008000   ; qtot 49.211549
 1474         c3     49    bbb     C2   1474 -0.07020100  12.010000   ; qtot 49.141348
 1475         hx     49    bbb     H3   1475 0.12219000   1.008000   ; qtot 49.263538
 1476         hx     49    bbb     H4   1476 0.12219000   1.008000   ; qtot 49.385728
 1477         c3     49    bbb     C3   1477 -0.39007700  12.010000   ; qtot 48.995651
 1478         hx     49    bbb     H5   1478 0.14940300   1.008000   ; qtot 49.145054
 1479         hx     49    bbb     H6   1479 0.14940300   1.008000   ; qtot 49.294457
 1480         c3     49    bbb     C4   1480 0.18057300  12.010000   ; qtot 49.475030
 1481         hc     49    bbb     H7   1481 0.01788900   1.008000   ; qtot 49.492919
 1482         hc     49    bbb     H8   1482 0.01788900   1.008000   ; qtot 49.510808
 1483         c3     49    bbb     C5   1483 -0.11337700  12.010000   ; qtot 49.397431
 1484         hc     49    bbb     H9   1484 0.09515400   1.008000   ; qtot 49.492585
 1485         hc     49    bbb    H10   1485 0.09515400   1.008000   ; qtot 49.587739
 1486         c3     49    bbb     C6   1486 -0.11337700  12.010000   ; qtot 49.474362
 1487         hc     49    bbb    H11   1487 0.09515400   1.008000   ; qtot 49.569516
 1488         hc     49    bbb    H12   1488 0.09515400   1.008000   ; qtot 49.664670
 1489         c3     49    bbb     C7   1489 0.21842400  12.010000   ; qtot 49.883094
 1490         h1     49    bbb    H13   1490 0.04500300   1.008000   ; qtot 49.928097
 1491         h1     49    bbb    H14   1491 0.04500300   1.008000   ; qtot 49.973100
 1492         c3     49    bbb     C8   1492 -0.06455200  12.010000   ; qtot 49.908548
 1493         h1     49    bbb    H15   1493 0.13554100   1.008000   ; qtot 50.044089
 1494         h1     49    bbb    H16   1494 0.13554100   1.008000   ; qtot 50.179630
 1495         c3     49    bbb     C9   1495 -0.06455200  12.010000   ; qtot 50.115078
 1496         h1     49    bbb    H17   1496 0.13554100   1.008000   ; qtot 50.250619
 1497         h1     49    bbb    H18   1497 0.13554100   1.008000   ; qtot 50.386160
 1498         os     49    bbb     O1   1498 -0.62587700  16.000000   ; qtot 49.760283
 1499         hn     49    bbb    H19   1499 0.23982500   1.008000   ; qtot 50.000108
; residue   50 bbb rtp bbb q 1.0
 1500         n4     50    bbb     N1   1500 0.03726400  14.010000   ; qtot 50.037372
 1501         c3     50    bbb     C1   1501 -0.07020100  12.010000   ; qtot 49.967171
 1502         hx     50    bbb     H1   1502 0.12219000   1.008000   ; qtot 50.089361
 1503         hx     50    bbb     H2   1503 0.12219000   1.008000   ; qtot 50.211551
 1504         c3     50    bbb     C2   1504 -0.07020100  12.010000   ; qtot 50.141350
 1505         hx     50    bbb     H3   1505 0.12219000   1.008000   ; qtot 50.263540
 1506         hx     50    bbb     H4   1506 0.12219000   1.008000   ; qtot 50.385730
 1507         c3     50    bbb     C3   1507 -0.39007700  12.010000   ; qtot 49.995653
 1508         hx     50    bbb     H5   1508 0.14940300   1.008000   ; qtot 50.145056
 1509         hx     50    bbb     H6   1509 0.14940300   1.008000   ; qtot 50.294459
 1510         c3     50    bbb     C4   1510 0.18057300  12.010000   ; qtot 50.475032
 1511         hc     50    bbb     H7   1511 0.01788900   1.008000   ; qtot 50.492921
 1512         hc     50    bbb     H8   1512 0.01788900   1.008000   ; qtot 50.510810
 1513         c3     50    bbb     C5   1513 -0.11337700  12.010000   ; qtot 50.397433
 1514         hc     50    bbb     H9   1514 0.09515400   1.008000   ; qtot 50.492587
 1515         hc     50    bbb    H10   1515 0.09515400   1.008000   ; qtot 50.587741
 1516         c3     50    bbb     C6   1516 -0.11337700  12.010000   ; qtot 50.474364
 1517         hc     50    bbb    H11   1517 0.09515400   1.008000   ; qtot 50.569518
 1518         hc     50    bbb    H12   1518 0.09515400   1.008000   ; qtot 50.664672
 1519         c3     50    bbb     C7   1519 0.21842400  12.010000   ; qtot 50.883096
 1520         h1     50    bbb    H13   1520 0.04500300   1.008000   ; qtot 50.928099
 1521         h1     50    bbb    H14   1521 0.04500300   1.008000   ; qtot 50.973102
 1522         c3     50    bbb     C8   1522 -0.06455200  12.010000   ; qtot 50.908550
 1523         h1     50    bbb    H15   1523 0.13554100   1.008000   ; qtot 51.044091
 1524         h1     50    bbb    H16   1524 0.13554100   1.008000   ; qtot 51.179632
 1525         c3     50    bbb     C9   1525 -0.06455200  12.010000   ; qtot 51.115080
 1526         h1     50    bbb    H17   1526 0.13554100   1.008000   ; qtot 51.250621
 1527         h1     50    bbb    H18   1527 0.13554100   1.008000   ; qtot 51.386162
 1528         os     50    bbb     O1   1528 -0.62587700  16.000000   ; qtot 50.760285
 1529         hn     50    bbb    H19   1529 0.23982500   1.008000   ; qtot 51.000110
; residue   51 bbb rtp bbb q 1.0
 1530         n4     51    bbb     N1   1530 0.03726400  14.010000   ; qtot 51.037374
 1531         c3     51    bbb     C1   1531 -0.07020100  12.010000   ; qtot 50.967173
 1532         hx     51    bbb     H1   1532 0.12219000   1.008000   ; qtot 51.089363
 1533         hx     51    bbb     H2   1533 0.12219000   1.008000   ; qtot 51.211553
 1534         c3     51    bbb     C2   1534 -0.07020100  12.010000   ; qtot 51.141352
 1535         hx     51    bbb     H3   1535 0.12219000   1.008000   ; qtot 51.263542
 1536         hx     51    bbb     H4   1536 0.12219000   1.008000   ; qtot 51.385732
 1537         c3     51    bbb     C3   1537 -0.39007700  12.010000   ; qtot 50.995655
 1538         hx     51    bbb     H5   1538 0.14940300   1.008000   ; qtot 51.145058
 1539         hx     51    bbb     H6   1539 0.14940300   1.008000   ; qtot 51.294461
 1540         c3     51    bbb     C4   1540 0.18057300  12.010000   ; qtot 51.475034
 1541         hc     51    bbb     H7   1541 0.01788900   1.008000   ; qtot 51.492923
 1542         hc     51    bbb     H8   1542 0.01788900   1.008000   ; qtot 51.510812
 1543         c3     51    bbb     C5   1543 -0.11337700  12.010000   ; qtot 51.397435
 1544         hc     51    bbb     H9   1544 0.09515400   1.008000   ; qtot 51.492589
 1545         hc     51    bbb    H10   1545 0.09515400   1.008000   ; qtot 51.587743
 1546         c3     51    bbb     C6   1546 -0.11337700  12.010000   ; qtot 51.474366
 1547         hc     51    bbb    H11   1547 0.09515400   1.008000   ; qtot 51.569520
 1548         hc     51    bbb    H12   1548 0.09515400   1.008000   ; qtot 51.664674
 1549         c3     51    bbb     C7   1549 0.21842400  12.010000   ; qtot 51.883098
 1550         h1     51    bbb    H13   1550 0.04500300   1.008000   ; qtot 51.928101
 1551         h1     51    bbb    H14   1551 0.04500300   1.008000   ; qtot 51.973104
 1552         c3     51    bbb     C8   1552 -0.06455200  12.010000   ; qtot 51.908552
 1553         h1     51    bbb    H15   1553 0.13554100   1.008000   ; qtot 52.044093
 1554         h1     51    bbb    H16   1554 0.13554100   1.008000   ; qtot 52.179634
 1555         c3     51    bbb     C9   1555 -0.06455200  12.010000   ; qtot 52.115082
 1556         h1     51    bbb    H17   1556 0.13554100   1.008000   ; qtot 52.250623
 1557         h1     51    bbb    H18   1557 0.13554100   1.008000   ; qtot 52.386164
 1558         os     51    bbb     O1   1558 -0.62587700  16.000000   ; qtot 51.760287
 1559         hn     51    bbb    H19   1559 0.23982500   1.008000   ; qtot 52.000112
; residue   52 bbb rtp bbb q 1.0
 1560         n4     52    bbb     N1   1560 0.03726400  14.010000   ; qtot 52.037376
 1561         c3     52    bbb     C1   1561 -0.07020100  12.010000   ; qtot 51.967175
 1562         hx     52    bbb     H1   1562 0.12219000   1.008000   ; qtot 52.089365
 1563         hx     52    bbb     H2   1563 0.12219000   1.008000   ; qtot 52.211555
 1564         c3     52    bbb     C2   1564 -0.07020100  12.010000   ; qtot 52.141354
 1565         hx     52    bbb     H3   1565 0.12219000   1.008000   ; qtot 52.263544
 1566         hx     52    bbb     H4   1566 0.12219000   1.008000   ; qtot 52.385734
 1567         c3     52    bbb     C3   1567 -0.39007700  12.010000   ; qtot 51.995657
 1568         hx     52    bbb     H5   1568 0.14940300   1.008000   ; qtot 52.145060
 1569         hx     52    bbb     H6   1569 0.14940300   1.008000   ; qtot 52.294463
 1570         c3     52    bbb     C4   1570 0.18057300  12.010000   ; qtot 52.475036
 1571         hc     52    bbb     H7   1571 0.01788900   1.008000   ; qtot 52.492925
 1572         hc     52    bbb     H8   1572 0.01788900   1.008000   ; qtot 52.510814
 1573         c3     52    bbb     C5   1573 -0.11337700  12.010000   ; qtot 52.397437
 1574         hc     52    bbb     H9   1574 0.09515400   1.008000   ; qtot 52.492591
 1575         hc     52    bbb    H10   1575 0.09515400   1.008000   ; qtot 52.587745
 1576         c3     52    bbb     C6   1576 -0.11337700  12.010000   ; qtot 52.474368
 1577         hc     52    bbb    H11   1577 0.09515400   1.008000   ; qtot 52.569522
 1578         hc     52    bbb    H12   1578 0.09515400   1.008000   ; qtot 52.664676
 1579         c3     52    bbb     C7   1579 0.21842400  12.010000   ; qtot 52.883100
 1580         h1     52    bbb    H13   1580 0.04500300   1.008000   ; qtot 52.928103
 1581         h1     52    bbb    H14   1581 0.04500300   1.008000   ; qtot 52.973106
 1582         c3     52    bbb     C8   1582 -0.06455200  12.010000   ; qtot 52.908554
 1583         h1     52    bbb    H15   1583 0.13554100   1.008000   ; qtot 53.044095
 1584         h1     52    bbb    H16   1584 0.13554100   1.008000   ; qtot 53.179636
 1585         c3     52    bbb     C9   1585 -0.06455200  12.010000   ; qtot 53.115084
 1586         h1     52    bbb    H17   1586 0.13554100   1.008000   ; qtot 53.250625
 1587         h1     52    bbb    H18   1587 0.13554100   1.008000   ; qtot 53.386166
 1588         os     52    bbb     O1   1588 -0.62587700  16.000000   ; qtot 52.760289
 1589         hn     52    bbb    H19   1589 0.23982500   1.008000   ; qtot 53.000114
; residue   53 bbb rtp bbb q 1.0
 1590         n4     53    bbb     N1   1590 0.03726400  14.010000   ; qtot 53.037378
 1591         c3     53    bbb     C1   1591 -0.07020100  12.010000   ; qtot 52.967177
 1592         hx     53    bbb     H1   1592 0.12219000   1.008000   ; qtot 53.089367
 1593         hx     53    bbb     H2   1593 0.12219000   1.008000   ; qtot 53.211557
 1594         c3     53    bbb     C2   1594 -0.07020100  12.010000   ; qtot 53.141356
 1595         hx     53    bbb     H3   1595 0.12219000   1.008000   ; qtot 53.263546
 1596         hx     53    bbb     H4   1596 0.12219000   1.008000   ; qtot 53.385736
 1597         c3     53    bbb     C3   1597 -0.39007700  12.010000   ; qtot 52.995659
 1598         hx     53    bbb     H5   1598 0.14940300   1.008000   ; qtot 53.145062
 1599         hx     53    bbb     H6   1599 0.14940300   1.008000   ; qtot 53.294465
 1600         c3     53    bbb     C4   1600 0.18057300  12.010000   ; qtot 53.475038
 1601         hc     53    bbb     H7   1601 0.01788900   1.008000   ; qtot 53.492927
 1602         hc     53    bbb     H8   1602 0.01788900   1.008000   ; qtot 53.510816
 1603         c3     53    bbb     C5   1603 -0.11337700  12.010000   ; qtot 53.397439
 1604         hc     53    bbb     H9   1604 0.09515400   1.008000   ; qtot 53.492593
 1605         hc     53    bbb    H10   1605 0.09515400   1.008000   ; qtot 53.587747
 1606         c3     53    bbb     C6   1606 -0.11337700  12.010000   ; qtot 53.474370
 1607         hc     53    bbb    H11   1607 0.09515400   1.008000   ; qtot 53.569524
 1608         hc     53    bbb    H12   1608 0.09515400   1.008000   ; qtot 53.664678
 1609         c3     53    bbb     C7   1609 0.21842400  12.010000   ; qtot 53.883102
 1610         h1     53    bbb    H13   1610 0.04500300   1.008000   ; qtot 53.928105
 1611         h1     53    bbb    H14   1611 0.04500300   1.008000   ; qtot 53.973108
 1612         c3     53    bbb     C8   1612 -0.06455200  12.010000   ; qtot 53.908556
 1613         h1     53    bbb    H15   1613 0.13554100   1.008000   ; qtot 54.044097
 1614         h1     53    bbb    H16   1614 0.13554100   1.008000   ; qtot 54.179638
 1615         c3     53    bbb     C9   1615 -0.06455200  12.010000   ; qtot 54.115086
 1616         h1     53    bbb    H17   1616 0.13554100   1.008000   ; qtot 54.250627
 1617         h1     53    bbb    H18   1617 0.13554100   1.008000   ; qtot 54.386168
 1618         os     53    bbb     O1   1618 -0.62587700  16.000000   ; qtot 53.760291
 1619         hn     53    bbb    H19   1619 0.23982500   1.008000   ; qtot 54.000116
; residue   54 bbb rtp bbb q 1.0
 1620         n4     54    bbb     N1   1620 0.03726400  14.010000   ; qtot 54.037380
 1621         c3     54    bbb     C1   1621 -0.07020100  12.010000   ; qtot 53.967179
 1622         hx     54    bbb     H1   1622 0.12219000   1.008000   ; qtot 54.089369
 1623         hx     54    bbb     H2   1623 0.12219000   1.008000   ; qtot 54.211559
 1624         c3     54    bbb     C2   1624 -0.07020100  12.010000   ; qtot 54.141358
 1625         hx     54    bbb     H3   1625 0.12219000   1.008000   ; qtot 54.263548
 1626         hx     54    bbb     H4   1626 0.12219000   1.008000   ; qtot 54.385738
 1627         c3     54    bbb     C3   1627 -0.39007700  12.010000   ; qtot 53.995661
 1628         hx     54    bbb     H5   1628 0.14940300   1.008000   ; qtot 54.145064
 1629         hx     54    bbb     H6   1629 0.14940300   1.008000   ; qtot 54.294467
 1630         c3     54    bbb     C4   1630 0.18057300  12.010000   ; qtot 54.475040
 1631         hc     54    bbb     H7   1631 0.01788900   1.008000   ; qtot 54.492929
 1632         hc     54    bbb     H8   1632 0.01788900   1.008000   ; qtot 54.510818
 1633         c3     54    bbb     C5   1633 -0.11337700  12.010000   ; qtot 54.397441
 1634         hc     54    bbb     H9   1634 0.09515400   1.008000   ; qtot 54.492595
 1635         hc     54    bbb    H10   1635 0.09515400   1.008000   ; qtot 54.587749
 1636         c3     54    bbb     C6   1636 -0.11337700  12.010000   ; qtot 54.474372
 1637         hc     54    bbb    H11   1637 0.09515400   1.008000   ; qtot 54.569526
 1638         hc     54    bbb    H12   1638 0.09515400   1.008000   ; qtot 54.664680
 1639         c3     54    bbb     C7   1639 0.21842400  12.010000   ; qtot 54.883104
 1640         h1     54    bbb    H13   1640 0.04500300   1.008000   ; qtot 54.928107
 1641         h1     54    bbb    H14   1641 0.04500300   1.008000   ; qtot 54.973110
 1642         c3     54    bbb     C8   1642 -0.06455200  12.010000   ; qtot 54.908558
 1643         h1     54    bbb    H15   1643 0.13554100   1.008000   ; qtot 55.044099
 1644         h1     54    bbb    H16   1644 0.13554100   1.008000   ; qtot 55.179640
 1645         c3     54    bbb     C9   1645 -0.06455200  12.010000   ; qtot 55.115088
 1646         h1     54    bbb    H17   1646 0.13554100   1.008000   ; qtot 55.250629
 1647         h1     54    bbb    H18   1647 0.13554100   1.008000   ; qtot 55.386170
 1648         os     54    bbb     O1   1648 -0.62587700  16.000000   ; qtot 54.760293
 1649         hn     54    bbb    H19   1649 0.23982500   1.008000   ; qtot 55.000118
; residue   55 bbb rtp bbb q 1.0
 1650         n4     55    bbb     N1   1650 0.03726400  14.010000   ; qtot 55.037382
 1651         c3     55    bbb     C1   1651 -0.07020100  12.010000   ; qtot 54.967181
 1652         hx     55    bbb     H1   1652 0.12219000   1.008000   ; qtot 55.089371
 1653         hx     55    bbb     H2   1653 0.12219000   1.008000   ; qtot 55.211561
 1654         c3     55    bbb     C2   1654 -0.07020100  12.010000   ; qtot 55.141360
 1655         hx     55    bbb     H3   1655 0.12219000   1.008000   ; qtot 55.263550
 1656         hx     55    bbb     H4   1656 0.12219000   1.008000   ; qtot 55.385740
 1657         c3     55    bbb     C3   1657 -0.39007700  12.010000   ; qtot 54.995663
 1658         hx     55    bbb     H5   1658 0.14940300   1.008000   ; qtot 55.145066
 1659         hx     55    bbb     H6   1659 0.14940300   1.008000   ; qtot 55.294469
 1660         c3     55    bbb     C4   1660 0.18057300  12.010000   ; qtot 55.475042
 1661         hc     55    bbb     H7   1661 0.01788900   1.008000   ; qtot 55.492931
 1662         hc     55    bbb     H8   1662 0.01788900   1.008000   ; qtot 55.510820
 1663         c3     55    bbb     C5   1663 -0.11337700  12.010000   ; qtot 55.397443
 1664         hc     55    bbb     H9   1664 0.09515400   1.008000   ; qtot 55.492597
 1665         hc     55    bbb    H10   1665 0.09515400   1.008000   ; qtot 55.587751
 1666         c3     55    bbb     C6   1666 -0.11337700  12.010000   ; qtot 55.474374
 1667         hc     55    bbb    H11   1667 0.09515400   1.008000   ; qtot 55.569528
 1668         hc     55    bbb    H12   1668 0.09515400   1.008000   ; qtot 55.664682
 1669         c3     55    bbb     C7   1669 0.21842400  12.010000   ; qtot 55.883106
 1670         h1     55    bbb    H13   1670 0.04500300   1.008000   ; qtot 55.928109
 1671         h1     55    bbb    H14   1671 0.04500300   1.008000   ; qtot 55.973112
 1672         c3     55    bbb     C8   1672 -0.06455200  12.010000   ; qtot 55.908560
 1673         h1     55    bbb    H15   1673 0.13554100   1.008000   ; qtot 56.044101
 1674         h1     55    bbb    H16   1674 0.13554100   1.008000   ; qtot 56.179642
 1675         c3     55    bbb     C9   1675 -0.06455200  12.010000   ; qtot 56.115090
 1676         h1     55    bbb    H17   1676 0.13554100   1.008000   ; qtot 56.250631
 1677         h1     55    bbb    H18   1677 0.13554100   1.008000   ; qtot 56.386172
 1678         os     55    bbb     O1   1678 -0.62587700  16.000000   ; qtot 55.760295
 1679         hn     55    bbb    H19   1679 0.23982500   1.008000   ; qtot 56.000120
; residue   56 bbb rtp bbb q 1.0
 1680         n4     56    bbb     N1   1680 0.03726400  14.010000   ; qtot 56.037384
 1681         c3     56    bbb     C1   1681 -0.07020100  12.010000   ; qtot 55.967183
 1682         hx     56    bbb     H1   1682 0.12219000   1.008000   ; qtot 56.089373
 1683         hx     56    bbb     H2   1683 0.12219000   1.008000   ; qtot 56.211563
 1684         c3     56    bbb     C2   1684 -0.07020100  12.010000   ; qtot 56.141362
 1685         hx     56    bbb     H3   1685 0.12219000   1.008000   ; qtot 56.263552
 1686         hx     56    bbb     H4   1686 0.12219000   1.008000   ; qtot 56.385742
 1687         c3     56    bbb     C3   1687 -0.39007700  12.010000   ; qtot 55.995665
 1688         hx     56    bbb     H5   1688 0.14940300   1.008000   ; qtot 56.145068
 1689         hx     56    bbb     H6   1689 0.14940300   1.008000   ; qtot 56.294471
 1690         c3     56    bbb     C4   1690 0.18057300  12.010000   ; qtot 56.475044
 1691         hc     56    bbb     H7   1691 0.01788900   1.008000   ; qtot 56.492933
 1692         hc     56    bbb     H8   1692 0.01788900   1.008000   ; qtot 56.510822
 1693         c3     56    bbb     C5   1693 -0.11337700  12.010000   ; qtot 56.397445
 1694         hc     56    bbb     H9   1694 0.09515400   1.008000   ; qtot 56.492599
 1695         hc     56    bbb    H10   1695 0.09515400   1.008000   ; qtot 56.587753
 1696         c3     56    bbb     C6   1696 -0.11337700  12.010000   ; qtot 56.474376
 1697         hc     56    bbb    H11   1697 0.09515400   1.008000   ; qtot 56.569530
 1698         hc     56    bbb    H12   1698 0.09515400   1.008000   ; qtot 56.664684
 1699         c3     56    bbb     C7   1699 0.21842400  12.010000   ; qtot 56.883108
 1700         h1     56    bbb    H13   1700 0.04500300   1.008000   ; qtot 56.928111
 1701         h1     56    bbb    H14   1701 0.04500300   1.008000   ; qtot 56.973114
 1702         c3     56    bbb     C8   1702 -0.06455200  12.010000   ; qtot 56.908562
 1703         h1     56    bbb    H15   1703 0.13554100   1.008000   ; qtot 57.044103
 1704         h1     56    bbb    H16   1704 0.13554100   1.008000   ; qtot 57.179644
 1705         c3     56    bbb     C9   1705 -0.06455200  12.010000   ; qtot 57.115092
 1706         h1     56    bbb    H17   1706 0.13554100   1.008000   ; qtot 57.250633
 1707         h1     56    bbb    H18   1707 0.13554100   1.008000   ; qtot 57.386174
 1708         os     56    bbb     O1   1708 -0.62587700  16.000000   ; qtot 56.760297
 1709         hn     56    bbb    H19   1709 0.23982500   1.008000   ; qtot 57.000122
; residue   57 bbb rtp bbb q 1.0
 1710         n4     57    bbb     N1   1710 0.03726400  14.010000   ; qtot 57.037386
 1711         c3     57    bbb     C1   1711 -0.07020100  12.010000   ; qtot 56.967185
 1712         hx     57    bbb     H1   1712 0.12219000   1.008000   ; qtot 57.089375
 1713         hx     57    bbb     H2   1713 0.12219000   1.008000   ; qtot 57.211565
 1714         c3     57    bbb     C2   1714 -0.07020100  12.010000   ; qtot 57.141364
 1715         hx     57    bbb     H3   1715 0.12219000   1.008000   ; qtot 57.263554
 1716         hx     57    bbb     H4   1716 0.12219000   1.008000   ; qtot 57.385744
 1717         c3     57    bbb     C3   1717 -0.39007700  12.010000   ; qtot 56.995667
 1718         hx     57    bbb     H5   1718 0.14940300   1.008000   ; qtot 57.145070
 1719         hx     57    bbb     H6   1719 0.14940300   1.008000   ; qtot 57.294473
 1720         c3     57    bbb     C4   1720 0.18057300  12.010000   ; qtot 57.475046
 1721         hc     57    bbb     H7   1721 0.01788900   1.008000   ; qtot 57.492935
 1722         hc     57    bbb     H8   1722 0.01788900   1.008000   ; qtot 57.510824
 1723         c3     57    bbb     C5   1723 -0.11337700  12.010000   ; qtot 57.397447
 1724         hc     57    bbb     H9   1724 0.09515400   1.008000   ; qtot 57.492601
 1725         hc     57    bbb    H10   1725 0.09515400   1.008000   ; qtot 57.587755
 1726         c3     57    bbb     C6   1726 -0.11337700  12.010000   ; qtot 57.474378
 1727         hc     57    bbb    H11   1727 0.09515400   1.008000   ; qtot 57.569532
 1728         hc     57    bbb    H12   1728 0.09515400   1.008000   ; qtot 57.664686
 1729         c3     57    bbb     C7   1729 0.21842400  12.010000   ; qtot 57.883110
 1730         h1     57    bbb    H13   1730 0.04500300   1.008000   ; qtot 57.928113
 1731         h1     57    bbb    H14   1731 0.04500300   1.008000   ; qtot 57.973116
 1732         c3     57    bbb     C8   1732 -0.06455200  12.010000   ; qtot 57.908564
 1733         h1     57    bbb    H15   1733 0.13554100   1.008000   ; qtot 58.044105
 1734         h1     57    bbb    H16   1734 0.13554100   1.008000   ; qtot 58.179646
 1735         c3     57    bbb     C9   1735 -0.06455200  12.010000   ; qtot 58.115094
 1736         h1     57    bbb    H17   1736 0.13554100   1.008000   ; qtot 58.250635
 1737         h1     57    bbb    H18   1737 0.13554100   1.008000   ; qtot 58.386176
 1738         os     57    bbb     O1   1738 -0.62587700  16.000000   ; qtot 57.760299
 1739         hn     57    bbb    H19   1739 0.23982500   1.008000   ; qtot 58.000124
; residue   58 bbb rtp bbb q 1.0
 1740         n4     58    bbb     N1   1740 0.03726400  14.010000   ; qtot 58.037388
 1741         c3     58    bbb     C1   1741 -0.07020100  12.010000   ; qtot 57.967187
 1742         hx     58    bbb     H1   1742 0.12219000   1.008000   ; qtot 58.089377
 1743         hx     58    bbb     H2   1743 0.12219000   1.008000   ; qtot 58.211567
 1744         c3     58    bbb     C2   1744 -0.07020100  12.010000   ; qtot 58.141366
 1745         hx     58    bbb     H3   1745 0.12219000   1.008000   ; qtot 58.263556
 1746         hx     58    bbb     H4   1746 0.12219000   1.008000   ; qtot 58.385746
 1747         c3     58    bbb     C3   1747 -0.39007700  12.010000   ; qtot 57.995669
 1748         hx     58    bbb     H5   1748 0.14940300   1.008000   ; qtot 58.145072
 1749         hx     58    bbb     H6   1749 0.14940300   1.008000   ; qtot 58.294475
 1750         c3     58    bbb     C4   1750 0.18057300  12.010000   ; qtot 58.475048
 1751         hc     58    bbb     H7   1751 0.01788900   1.008000   ; qtot 58.492937
 1752         hc     58    bbb     H8   1752 0.01788900   1.008000   ; qtot 58.510826
 1753         c3     58    bbb     C5   1753 -0.11337700  12.010000   ; qtot 58.397449
 1754         hc     58    bbb     H9   1754 0.09515400   1.008000   ; qtot 58.492603
 1755         hc     58    bbb    H10   1755 0.09515400   1.008000   ; qtot 58.587757
 1756         c3     58    bbb     C6   1756 -0.11337700  12.010000   ; qtot 58.474380
 1757         hc     58    bbb    H11   1757 0.09515400   1.008000   ; qtot 58.569534
 1758         hc     58    bbb    H12   1758 0.09515400   1.008000   ; qtot 58.664688
 1759         c3     58    bbb     C7   1759 0.21842400  12.010000   ; qtot 58.883112
 1760         h1     58    bbb    H13   1760 0.04500300   1.008000   ; qtot 58.928115
 1761         h1     58    bbb    H14   1761 0.04500300   1.008000   ; qtot 58.973118
 1762         c3     58    bbb     C8   1762 -0.06455200  12.010000   ; qtot 58.908566
 1763         h1     58    bbb    H15   1763 0.13554100   1.008000   ; qtot 59.044107
 1764         h1     58    bbb    H16   1764 0.13554100   1.008000   ; qtot 59.179648
 1765         c3     58    bbb     C9   1765 -0.06455200  12.010000   ; qtot 59.115096
 1766         h1     58    bbb    H17   1766 0.13554100   1.008000   ; qtot 59.250637
 1767         h1     58    bbb    H18   1767 0.13554100   1.008000   ; qtot 59.386178
 1768         os     58    bbb     O1   1768 -0.62587700  16.000000   ; qtot 58.760301
 1769         hn     58    bbb    H19   1769 0.23982500   1.008000   ; qtot 59.000126
; residue   59 bbb rtp bbb q 1.0
 1770         n4     59    bbb     N1   1770 0.03726400  14.010000   ; qtot 59.037390
 1771         c3     59    bbb     C1   1771 -0.07020100  12.010000   ; qtot 58.967189
 1772         hx     59    bbb     H1   1772 0.12219000   1.008000   ; qtot 59.089379
 1773         hx     59    bbb     H2   1773 0.12219000   1.008000   ; qtot 59.211569
 1774         c3     59    bbb     C2   1774 -0.07020100  12.010000   ; qtot 59.141368
 1775         hx     59    bbb     H3   1775 0.12219000   1.008000   ; qtot 59.263558
 1776         hx     59    bbb     H4   1776 0.12219000   1.008000   ; qtot 59.385748
 1777         c3     59    bbb     C3   1777 -0.39007700  12.010000   ; qtot 58.995671
 1778         hx     59    bbb     H5   1778 0.14940300   1.008000   ; qtot 59.145074
 1779         hx     59    bbb     H6   1779 0.14940300   1.008000   ; qtot 59.294477
 1780         c3     59    bbb     C4   1780 0.18057300  12.010000   ; qtot 59.475050
 1781         hc     59    bbb     H7   1781 0.01788900   1.008000   ; qtot 59.492939
 1782         hc     59    bbb     H8   1782 0.01788900   1.008000   ; qtot 59.510828
 1783         c3     59    bbb     C5   1783 -0.11337700  12.010000   ; qtot 59.397451
 1784         hc     59    bbb     H9   1784 0.09515400   1.008000   ; qtot 59.492605
 1785         hc     59    bbb    H10   1785 0.09515400   1.008000   ; qtot 59.587759
 1786         c3     59    bbb     C6   1786 -0.11337700  12.010000   ; qtot 59.474382
 1787         hc     59    bbb    H11   1787 0.09515400   1.008000   ; qtot 59.569536
 1788         hc     59    bbb    H12   1788 0.09515400   1.008000   ; qtot 59.664690
 1789         c3     59    bbb     C7   1789 0.21842400  12.010000   ; qtot 59.883114
 1790         h1     59    bbb    H13   1790 0.04500300   1.008000   ; qtot 59.928117
 1791         h1     59    bbb    H14   1791 0.04500300   1.008000   ; qtot 59.973120
 1792         c3     59    bbb     C8   1792 -0.06455200  12.010000   ; qtot 59.908568
 1793         h1     59    bbb    H15   1793 0.13554100   1.008000   ; qtot 60.044109
 1794         h1     59    bbb    H16   1794 0.13554100   1.008000   ; qtot 60.179650
 1795         c3     59    bbb     C9   1795 -0.06455200  12.010000   ; qtot 60.115098
 1796         h1     59    bbb    H17   1796 0.13554100   1.008000   ; qtot 60.250639
 1797         h1     59    bbb    H18   1797 0.13554100   1.008000   ; qtot 60.386180
 1798         os     59    bbb     O1   1798 -0.62587700  16.000000   ; qtot 59.760303
 1799         hn     59    bbb    H19   1799 0.23982500   1.008000   ; qtot 60.000128
; residue   60 bbb rtp bbb q 1.0
 1800         n4     60    bbb     N1   1800 0.03726400  14.010000   ; qtot 60.037392
 1801         c3     60    bbb     C1   1801 -0.07020100  12.010000   ; qtot 59.967191
 1802         hx     60    bbb     H1   1802 0.12219000   1.008000   ; qtot 60.089381
 1803         hx     60    bbb     H2   1803 0.12219000   1.008000   ; qtot 60.211571
 1804         c3     60    bbb     C2   1804 -0.07020100  12.010000   ; qtot 60.141370
 1805         hx     60    bbb     H3   1805 0.12219000   1.008000   ; qtot 60.263560
 1806         hx     60    bbb     H4   1806 0.12219000   1.008000   ; qtot 60.385750
 1807         c3     60    bbb     C3   1807 -0.39007700  12.010000   ; qtot 59.995673
 1808         hx     60    bbb     H5   1808 0.14940300   1.008000   ; qtot 60.145076
 1809         hx     60    bbb     H6   1809 0.14940300   1.008000   ; qtot 60.294479
 1810         c3     60    bbb     C4   1810 0.18057300  12.010000   ; qtot 60.475052
 1811         hc     60    bbb     H7   1811 0.01788900   1.008000   ; qtot 60.492941
 1812         hc     60    bbb     H8   1812 0.01788900   1.008000   ; qtot 60.510830
 1813         c3     60    bbb     C5   1813 -0.11337700  12.010000   ; qtot 60.397453
 1814         hc     60    bbb     H9   1814 0.09515400   1.008000   ; qtot 60.492607
 1815         hc     60    bbb    H10   1815 0.09515400   1.008000   ; qtot 60.587761
 1816         c3     60    bbb     C6   1816 -0.11337700  12.010000   ; qtot 60.474384
 1817         hc     60    bbb    H11   1817 0.09515400   1.008000   ; qtot 60.569538
 1818         hc     60    bbb    H12   1818 0.09515400   1.008000   ; qtot 60.664692
 1819         c3     60    bbb     C7   1819 0.21842400  12.010000   ; qtot 60.883116
 1820         h1     60    bbb    H13   1820 0.04500300   1.008000   ; qtot 60.928119
 1821         h1     60    bbb    H14   1821 0.04500300   1.008000   ; qtot 60.973122
 1822         c3     60    bbb     C8   1822 -0.06455200  12.010000   ; qtot 60.908570
 1823         h1     60    bbb    H15   1823 0.13554100   1.008000   ; qtot 61.044111
 1824         h1     60    bbb    H16   1824 0.13554100   1.008000   ; qtot 61.179652
 1825         c3     60    bbb     C9   1825 -0.06455200  12.010000   ; qtot 61.115100
 1826         h1     60    bbb    H17   1826 0.13554100   1.008000   ; qtot 61.250641
 1827         h1     60    bbb    H18   1827 0.13554100   1.008000   ; qtot 61.386182
 1828         os     60    bbb     O1   1828 -0.62587700  16.000000   ; qtot 60.760305
 1829         hn     60    bbb    H19   1829 0.23982500   1.008000   ; qtot 61.000130
; residue   61 bbb rtp bbb q 1.0
 1830         n4     61    bbb     N1   1830 0.03726400  14.010000   ; qtot 61.037394
 1831         c3     61    bbb     C1   1831 -0.07020100  12.010000   ; qtot 60.967193
 1832         hx     61    bbb     H1   1832 0.12219000   1.008000   ; qtot 61.089383
 1833         hx     61    bbb     H2   1833 0.12219000   1.008000   ; qtot 61.211573
 1834         c3     61    bbb     C2   1834 -0.07020100  12.010000   ; qtot 61.141372
 1835         hx     61    bbb     H3   1835 0.12219000   1.008000   ; qtot 61.263562
 1836         hx     61    bbb     H4   1836 0.12219000   1.008000   ; qtot 61.385752
 1837         c3     61    bbb     C3   1837 -0.39007700  12.010000   ; qtot 60.995675
 1838         hx     61    bbb     H5   1838 0.14940300   1.008000   ; qtot 61.145078
 1839         hx     61    bbb     H6   1839 0.14940300   1.008000   ; qtot 61.294481
 1840         c3     61    bbb     C4   1840 0.18057300  12.010000   ; qtot 61.475054
 1841         hc     61    bbb     H7   1841 0.01788900   1.008000   ; qtot 61.492943
 1842         hc     61    bbb     H8   1842 0.01788900   1.008000   ; qtot 61.510832
 1843         c3     61    bbb     C5   1843 -0.11337700  12.010000   ; qtot 61.397455
 1844         hc     61    bbb     H9   1844 0.09515400   1.008000   ; qtot 61.492609
 1845         hc     61    bbb    H10   1845 0.09515400   1.008000   ; qtot 61.587763
 1846         c3     61    bbb     C6   1846 -0.11337700  12.010000   ; qtot 61.474386
 1847         hc     61    bbb    H11   1847 0.09515400   1.008000   ; qtot 61.569540
 1848         hc     61    bbb    H12   1848 0.09515400   1.008000   ; qtot 61.664694
 1849         c3     61    bbb     C7   1849 0.21842400  12.010000   ; qtot 61.883118
 1850         h1     61    bbb    H13   1850 0.04500300   1.008000   ; qtot 61.928121
 1851         h1     61    bbb    H14   1851 0.04500300   1.008000   ; qtot 61.973124
 1852         c3     61    bbb     C8   1852 -0.06455200  12.010000   ; qtot 61.908572
 1853         h1     61    bbb    H15   1853 0.13554100   1.008000   ; qtot 62.044113
 1854         h1     61    bbb    H16   1854 0.13554100   1.008000   ; qtot 62.179654
 1855         c3     61    bbb     C9   1855 -0.06455200  12.010000   ; qtot 62.115102
 1856         h1     61    bbb    H17   1856 0.13554100   1.008000   ; qtot 62.250643
 1857         h1     61    bbb    H18   1857 0.13554100   1.008000   ; qtot 62.386184
 1858         os     61    bbb     O1   1858 -0.62587700  16.000000   ; qtot 61.760307
 1859         hn     61    bbb    H19   1859 0.23982500   1.008000   ; qtot 62.000132
; residue   62 ccc rtp ccc q 1.0
 1860         c3     62    ccc     C1   1860 0.17060900  12.010000   ; qtot 62.170741
 1861         hx     62    ccc     H1   1861 0.04213200   1.008000   ; qtot 62.212873
 1862         hx     62    ccc     H2   1862 0.04213200   1.008000   ; qtot 62.255005
 1863         c3     62    ccc     C2   1863 -0.04496700  12.010000   ; qtot 62.210038
 1864         hc     62    ccc     H3   1864 0.02647500   1.008000   ; qtot 62.236513
 1865         hc     62    ccc     H4   1865 0.02647500   1.008000   ; qtot 62.262988
 1866         c3     62    ccc     C3   1866 0.04732600  12.010000   ; qtot 62.310314
 1867         h1     62    ccc     H5   1867 0.07030200   1.008000   ; qtot 62.380616
 1868         h1     62    ccc     H6   1868 0.07030200   1.008000   ; qtot 62.450918
 1869         n4     62    ccc     N1   1869 -0.21077700  14.010000   ; qtot 62.240141
 1870         hn     62    ccc     H7   1870 0.28399900   1.008000   ; qtot 62.524140
 1871         hn     62    ccc     H8   1871 0.28399900   1.008000   ; qtot 62.808139
 1872         os     62    ccc     O1   1872 -0.09200600  16.000000   ; qtot 62.716133
 1873         hn     62    ccc    H17   1873 0.28399900   1.008000   ; qtot 63.000132
; residue   63 ccc rtp ccc q 1.0
 1874         c3     63    ccc     C1   1874 0.17060900  12.010000   ; qtot 63.170741
 1875         hx     63    ccc     H1   1875 0.04213200   1.008000   ; qtot 63.212873
 1876         hx     63    ccc     H2   1876 0.04213200   1.008000   ; qtot 63.255005
 1877         c3     63    ccc     C2   1877 -0.04496700  12.010000   ; qtot 63.210038
 1878         hc     63    ccc     H3   1878 0.02647500   1.008000   ; qtot 63.236513
 1879         hc     63    ccc     H4   1879 0.02647500   1.008000   ; qtot 63.262988
 1880         c3     63    ccc     C3   1880 0.04732600  12.010000   ; qtot 63.310314
 1881         h1     63    ccc     H5   1881 0.07030200   1.008000   ; qtot 63.380616
 1882         h1     63    ccc     H6   1882 0.07030200   1.008000   ; qtot 63.450918
 1883         n4     63    ccc     N1   1883 -0.21077700  14.010000   ; qtot 63.240141
 1884         hn     63    ccc     H7   1884 0.28399900   1.008000   ; qtot 63.524140
 1885         hn     63    ccc     H8   1885 0.28399900   1.008000   ; qtot 63.808139
 1886         os     63    ccc     O1   1886 -0.09200600  16.000000   ; qtot 63.716133
 1887         hn     63    ccc    H17   1887 0.28399900   1.008000   ; qtot 64.000132
; residue   64 ccc rtp ccc q 1.0
 1888         c3     64    ccc     C1   1888 0.17060900  12.010000   ; qtot 64.170741
 1889         hx     64    ccc     H1   1889 0.04213200   1.008000   ; qtot 64.212873
 1890         hx     64    ccc     H2   1890 0.04213200   1.008000   ; qtot 64.255005
 1891         c3     64    ccc     C2   1891 -0.04496700  12.010000   ; qtot 64.210038
 1892         hc     64    ccc     H3   1892 0.02647500   1.008000   ; qtot 64.236513
 1893         hc     64    ccc     H4   1893 0.02647500   1.008000   ; qtot 64.262988
 1894         c3     64    ccc     C3   1894 0.04732600  12.010000   ; qtot 64.310314
 1895         h1     64    ccc     H5   1895 0.07030200   1.008000   ; qtot 64.380616
 1896         h1     64    ccc     H6   1896 0.07030200   1.008000   ; qtot 64.450918
 1897         n4     64    ccc     N1   1897 -0.21077700  14.010000   ; qtot 64.240141
 1898         hn     64    ccc     H7   1898 0.28399900   1.008000   ; qtot 64.524140
 1899         hn     64    ccc     H8   1899 0.28399900   1.008000   ; qtot 64.808139
 1900         os     64    ccc     O1   1900 -0.09200600  16.000000   ; qtot 64.716133
 1901         hn     64    ccc    H17   1901 0.28399900   1.008000   ; qtot 65.000132
; residue   65 ccc rtp ccc q 1.0
 1902         c3     65    ccc     C1   1902 0.17060900  12.010000   ; qtot 65.170741
 1903         hx     65    ccc     H1   1903 0.04213200   1.008000   ; qtot 65.212873
 1904         hx     65    ccc     H2   1904 0.04213200   1.008000   ; qtot 65.255005
 1905         c3     65    ccc     C2   1905 -0.04496700  12.010000   ; qtot 65.210038
 1906         hc     65    ccc     H3   1906 0.02647500   1.008000   ; qtot 65.236513
 1907         hc     65    ccc     H4   1907 0.02647500   1.008000   ; qtot 65.262988
 1908         c3     65    ccc     C3   1908 0.04732600  12.010000   ; qtot 65.310314
 1909         h1     65    ccc     H5   1909 0.07030200   1.008000   ; qtot 65.380616
 1910         h1     65    ccc     H6   1910 0.07030200   1.008000   ; qtot 65.450918
 1911         n4     65    ccc     N1   1911 -0.21077700  14.010000   ; qtot 65.240141
 1912         hn     65    ccc     H7   1912 0.28399900   1.008000   ; qtot 65.524140
 1913         hn     65    ccc     H8   1913 0.28399900   1.008000   ; qtot 65.808139
 1914         os     65    ccc     O1   1914 -0.09200600  16.000000   ; qtot 65.716133
 1915         hn     65    ccc    H17   1915 0.28399900   1.008000   ; qtot 66.000132
; residue   66 ccc rtp ccc q 1.0
 1916         c3     66    ccc     C1   1916 0.17060900  12.010000   ; qtot 66.170741
 1917         hx     66    ccc     H1   1917 0.04213200   1.008000   ; qtot 66.212873
 1918         hx     66    ccc     H2   1918 0.04213200   1.008000   ; qtot 66.255005
 1919         c3     66    ccc     C2   1919 -0.04496700  12.010000   ; qtot 66.210038
 1920         hc     66    ccc     H3   1920 0.02647500   1.008000   ; qtot 66.236513
 1921         hc     66    ccc     H4   1921 0.02647500   1.008000   ; qtot 66.262988
 1922         c3     66    ccc     C3   1922 0.04732600  12.010000   ; qtot 66.310314
 1923         h1     66    ccc     H5   1923 0.07030200   1.008000   ; qtot 66.380616
 1924         h1     66    ccc     H6   1924 0.07030200   1.008000   ; qtot 66.450918
 1925         n4     66    ccc     N1   1925 -0.21077700  14.010000   ; qtot 66.240141
 1926         hn     66    ccc     H7   1926 0.28399900   1.008000   ; qtot 66.524140
 1927         hn     66    ccc     H8   1927 0.28399900   1.008000   ; qtot 66.808139
 1928         os     66    ccc     O1   1928 -0.09200600  16.000000   ; qtot 66.716133
 1929         hn     66    ccc    H17   1929 0.28399900   1.008000   ; qtot 67.000132
; residue   67 ccc rtp ccc q 1.0
 1930         c3     67    ccc     C1   1930 0.17060900  12.010000   ; qtot 67.170741
 1931         hx     67    ccc     H1   1931 0.04213200   1.008000   ; qtot 67.212873
 1932         hx     67    ccc     H2   1932 0.04213200   1.008000   ; qtot 67.255005
 1933         c3     67    ccc     C2   1933 -0.04496700  12.010000   ; qtot 67.210038
 1934         hc     67    ccc     H3   1934 0.02647500   1.008000   ; qtot 67.236513
 1935         hc     67    ccc     H4   1935 0.02647500   1.008000   ; qtot 67.262988
 1936         c3     67    ccc     C3   1936 0.04732600  12.010000   ; qtot 67.310314
 1937         h1     67    ccc     H5   1937 0.07030200   1.008000   ; qtot 67.380616
 1938         h1     67    ccc     H6   1938 0.07030200   1.008000   ; qtot 67.450918
 1939         n4     67    ccc     N1   1939 -0.21077700  14.010000   ; qtot 67.240141
 1940         hn     67    ccc     H7   1940 0.28399900   1.008000   ; qtot 67.524140
 1941         hn     67    ccc     H8   1941 0.28399900   1.008000   ; qtot 67.808139
 1942         os     67    ccc     O1   1942 -0.09200600  16.000000   ; qtot 67.716133
 1943         hn     67    ccc    H17   1943 0.28399900   1.008000   ; qtot 68.000132
; residue   68 ccc rtp ccc q 1.0
 1944         c3     68    ccc     C1   1944 0.17060900  12.010000   ; qtot 68.170741
 1945         hx     68    ccc     H1   1945 0.04213200   1.008000   ; qtot 68.212873
 1946         hx     68    ccc     H2   1946 0.04213200   1.008000   ; qtot 68.255005
 1947         c3     68    ccc     C2   1947 -0.04496700  12.010000   ; qtot 68.210038
 1948         hc     68    ccc     H3   1948 0.02647500   1.008000   ; qtot 68.236513
 1949         hc     68    ccc     H4   1949 0.02647500   1.008000   ; qtot 68.262988
 1950         c3     68    ccc     C3   1950 0.04732600  12.010000   ; qtot 68.310314
 1951         h1     68    ccc     H5   1951 0.07030200   1.008000   ; qtot 68.380616
 1952         h1     68    ccc     H6   1952 0.07030200   1.008000   ; qtot 68.450918
 1953         n4     68    ccc     N1   1953 -0.21077700  14.010000   ; qtot 68.240141
 1954         hn     68    ccc     H7   1954 0.28399900   1.008000   ; qtot 68.524140
 1955         hn     68    ccc     H8   1955 0.28399900   1.008000   ; qtot 68.808139
 1956         os     68    ccc     O1   1956 -0.09200600  16.000000   ; qtot 68.716133
 1957         hn     68    ccc    H17   1957 0.28399900   1.008000   ; qtot 69.000132
; residue   69 ccc rtp ccc q 1.0
 1958         c3     69    ccc     C1   1958 0.17060900  12.010000   ; qtot 69.170741
 1959         hx     69    ccc     H1   1959 0.04213200   1.008000   ; qtot 69.212873
 1960         hx     69    ccc     H2   1960 0.04213200   1.008000   ; qtot 69.255005
 1961         c3     69    ccc     C2   1961 -0.04496700  12.010000   ; qtot 69.210038
 1962         hc     69    ccc     H3   1962 0.02647500   1.008000   ; qtot 69.236513
 1963         hc     69    ccc     H4   1963 0.02647500   1.008000   ; qtot 69.262988
 1964         c3     69    ccc     C3   1964 0.04732600  12.010000   ; qtot 69.310314
 1965         h1     69    ccc     H5   1965 0.07030200   1.008000   ; qtot 69.380616
 1966         h1     69    ccc     H6   1966 0.07030200   1.008000   ; qtot 69.450918
 1967         n4     69    ccc     N1   1967 -0.21077700  14.010000   ; qtot 69.240141
 1968         hn     69    ccc     H7   1968 0.28399900   1.008000   ; qtot 69.524140
 1969         hn     69    ccc     H8   1969 0.28399900   1.008000   ; qtot 69.808139
 1970         os     69    ccc     O1   1970 -0.09200600  16.000000   ; qtot 69.716133
 1971         hn     69    ccc    H17   1971 0.28399900   1.008000   ; qtot 70.000132
; residue   70 ccc rtp ccc q 1.0
 1972         c3     70    ccc     C1   1972 0.17060900  12.010000   ; qtot 70.170741
 1973         hx     70    ccc     H1   1973 0.04213200   1.008000   ; qtot 70.212873
 1974         hx     70    ccc     H2   1974 0.04213200   1.008000   ; qtot 70.255005
 1975         c3     70    ccc     C2   1975 -0.04496700  12.010000   ; qtot 70.210038
 1976         hc     70    ccc     H3   1976 0.02647500   1.008000   ; qtot 70.236513
 1977         hc     70    ccc     H4   1977 0.02647500   1.008000   ; qtot 70.262988
 1978         c3     70    ccc     C3   1978 0.04732600  12.010000   ; qtot 70.310314
 1979         h1     70    ccc     H5   1979 0.07030200   1.008000   ; qtot 70.380616
 1980         h1     70    ccc     H6   1980 0.07030200   1.008000   ; qtot 70.450918
 1981         n4     70    ccc     N1   1981 -0.21077700  14.010000   ; qtot 70.240141
 1982         hn     70    ccc     H7   1982 0.28399900   1.008000   ; qtot 70.524140
 1983         hn     70    ccc     H8   1983 0.28399900   1.008000   ; qtot 70.808139
 1984         os     70    ccc     O1   1984 -0.09200600  16.000000   ; qtot 70.716133
 1985         hn     70    ccc    H17   1985 0.28399900   1.008000   ; qtot 71.000132
; residue   71 ccc rtp ccc q 1.0
 1986         c3     71    ccc     C1   1986 0.17060900  12.010000   ; qtot 71.170741
 1987         hx     71    ccc     H1   1987 0.04213200   1.008000   ; qtot 71.212873
 1988         hx     71    ccc     H2   1988 0.04213200   1.008000   ; qtot 71.255005
 1989         c3     71    ccc     C2   1989 -0.04496700  12.010000   ; qtot 71.210038
 1990         hc     71    ccc     H3   1990 0.02647500   1.008000   ; qtot 71.236513
 1991         hc     71    ccc     H4   1991 0.02647500   1.008000   ; qtot 71.262988
 1992         c3     71    ccc     C3   1992 0.04732600  12.010000   ; qtot 71.310314
 1993         h1     71    ccc     H5   1993 0.07030200   1.008000   ; qtot 71.380616
 1994         h1     71    ccc     H6   1994 0.07030200   1.008000   ; qtot 71.450918
 1995         n4     71    ccc     N1   1995 -0.21077700  14.010000   ; qtot 71.240141
 1996         hn     71    ccc     H7   1996 0.28399900   1.008000   ; qtot 71.524140
 1997         hn     71    ccc     H8   1997 0.28399900   1.008000   ; qtot 71.808139
 1998         os     71    ccc     O1   1998 -0.09200600  16.000000   ; qtot 71.716133
 1999         hn     71    ccc    H17   1999 0.28399900   1.008000   ; qtot 72.000132
; residue   72 ccc rtp ccc q 1.0
 2000         c3     72    ccc     C1   2000 0.17060900  12.010000   ; qtot 72.170741
 2001         hx     72    ccc     H1   2001 0.04213200   1.008000   ; qtot 72.212873
 2002         hx     72    ccc     H2   2002 0.04213200   1.008000   ; qtot 72.255005
 2003         c3     72    ccc     C2   2003 -0.04496700  12.010000   ; qtot 72.210038
 2004         hc     72    ccc     H3   2004 0.02647500   1.008000   ; qtot 72.236513
 2005         hc     72    ccc     H4   2005 0.02647500   1.008000   ; qtot 72.262988
 2006         c3     72    ccc     C3   2006 0.04732600  12.010000   ; qtot 72.310314
 2007         h1     72    ccc     H5   2007 0.07030200   1.008000   ; qtot 72.380616
 2008         h1     72    ccc     H6   2008 0.07030200   1.008000   ; qtot 72.450918
 2009         n4     72    ccc     N1   2009 -0.21077700  14.010000   ; qtot 72.240141
 2010         hn     72    ccc     H7   2010 0.28399900   1.008000   ; qtot 72.524140
 2011         hn     72    ccc     H8   2011 0.28399900   1.008000   ; qtot 72.808139
 2012         os     72    ccc     O1   2012 -0.09200600  16.000000   ; qtot 72.716133
 2013         hn     72    ccc    H17   2013 0.28399900   1.008000   ; qtot 73.000132
; residue   73 ccc rtp ccc q 1.0
 2014         c3     73    ccc     C1   2014 0.17060900  12.010000   ; qtot 73.170741
 2015         hx     73    ccc     H1   2015 0.04213200   1.008000   ; qtot 73.212873
 2016         hx     73    ccc     H2   2016 0.04213200   1.008000   ; qtot 73.255005
 2017         c3     73    ccc     C2   2017 -0.04496700  12.010000   ; qtot 73.210038
 2018         hc     73    ccc     H3   2018 0.02647500   1.008000   ; qtot 73.236513
 2019         hc     73    ccc     H4   2019 0.02647500   1.008000   ; qtot 73.262988
 2020         c3     73    ccc     C3   2020 0.04732600  12.010000   ; qtot 73.310314
 2021         h1     73    ccc     H5   2021 0.07030200   1.008000   ; qtot 73.380616
 2022         h1     73    ccc     H6   2022 0.07030200   1.008000   ; qtot 73.450918
 2023         n4     73    ccc     N1   2023 -0.21077700  14.010000   ; qtot 73.240141
 2024         hn     73    ccc     H7   2024 0.28399900   1.008000   ; qtot 73.524140
 2025         hn     73    ccc     H8   2025 0.28399900   1.008000   ; qtot 73.808139
 2026         os     73    ccc     O1   2026 -0.09200600  16.000000   ; qtot 73.716133
 2027         hn     73    ccc    H17   2027 0.28399900   1.008000   ; qtot 74.000132
; residue   74 ccc rtp ccc q 1.0
 2028         c3     74    ccc     C1   2028 0.17060900  12.010000   ; qtot 74.170741
 2029         hx     74    ccc     H1   2029 0.04213200   1.008000   ; qtot 74.212873
 2030         hx     74    ccc     H2   2030 0.04213200   1.008000   ; qtot 74.255005
 2031         c3     74    ccc     C2   2031 -0.04496700  12.010000   ; qtot 74.210038
 2032         hc     74    ccc     H3   2032 0.02647500   1.008000   ; qtot 74.236513
 2033         hc     74    ccc     H4   2033 0.02647500   1.008000   ; qtot 74.262988
 2034         c3     74    ccc     C3   2034 0.04732600  12.010000   ; qtot 74.310314
 2035         h1     74    ccc     H5   2035 0.07030200   1.008000   ; qtot 74.380616
 2036         h1     74    ccc     H6   2036 0.07030200   1.008000   ; qtot 74.450918
 2037         n4     74    ccc     N1   2037 -0.21077700  14.010000   ; qtot 74.240141
 2038         hn     74    ccc     H7   2038 0.28399900   1.008000   ; qtot 74.524140
 2039         hn     74    ccc     H8   2039 0.28399900   1.008000   ; qtot 74.808139
 2040         os     74    ccc     O1   2040 -0.09200600  16.000000   ; qtot 74.716133
 2041         hn     74    ccc    H17   2041 0.28399900   1.008000   ; qtot 75.000132
; residue   75 ccc rtp ccc q 1.0
 2042         c3     75    ccc     C1   2042 0.17060900  12.010000   ; qtot 75.170741
 2043         hx     75    ccc     H1   2043 0.04213200   1.008000   ; qtot 75.212873
 2044         hx     75    ccc     H2   2044 0.04213200   1.008000   ; qtot 75.255005
 2045         c3     75    ccc     C2   2045 -0.04496700  12.010000   ; qtot 75.210038
 2046         hc     75    ccc     H3   2046 0.02647500   1.008000   ; qtot 75.236513
 2047         hc     75    ccc     H4   2047 0.02647500   1.008000   ; qtot 75.262988
 2048         c3     75    ccc     C3   2048 0.04732600  12.010000   ; qtot 75.310314
 2049         h1     75    ccc     H5   2049 0.07030200   1.008000   ; qtot 75.380616
 2050         h1     75    ccc     H6   2050 0.07030200   1.008000   ; qtot 75.450918
 2051         n4     75    ccc     N1   2051 -0.21077700  14.010000   ; qtot 75.240141
 2052         hn     75    ccc     H7   2052 0.28399900   1.008000   ; qtot 75.524140
 2053         hn     75    ccc     H8   2053 0.28399900   1.008000   ; qtot 75.808139
 2054         os     75    ccc     O1   2054 -0.09200600  16.000000   ; qtot 75.716133
 2055         hn     75    ccc    H17   2055 0.28399900   1.008000   ; qtot 76.000132
; residue   76 ccc rtp ccc q 1.0
 2056         c3     76    ccc     C1   2056 0.17060900  12.010000   ; qtot 76.170741
 2057         hx     76    ccc     H1   2057 0.04213200   1.008000   ; qtot 76.212873
 2058         hx     76    ccc     H2   2058 0.04213200   1.008000   ; qtot 76.255005
 2059         c3     76    ccc     C2   2059 -0.04496700  12.010000   ; qtot 76.210038
 2060         hc     76    ccc     H3   2060 0.02647500   1.008000   ; qtot 76.236513
 2061         hc     76    ccc     H4   2061 0.02647500   1.008000   ; qtot 76.262988
 2062         c3     76    ccc     C3   2062 0.04732600  12.010000   ; qtot 76.310314
 2063         h1     76    ccc     H5   2063 0.07030200   1.008000   ; qtot 76.380616
 2064         h1     76    ccc     H6   2064 0.07030200   1.008000   ; qtot 76.450918
 2065         n4     76    ccc     N1   2065 -0.21077700  14.010000   ; qtot 76.240141
 2066         hn     76    ccc     H7   2066 0.28399900   1.008000   ; qtot 76.524140
 2067         hn     76    ccc     H8   2067 0.28399900   1.008000   ; qtot 76.808139
 2068         os     76    ccc     O1   2068 -0.09200600  16.000000   ; qtot 76.716133
 2069         hn     76    ccc    H17   2069 0.28399900   1.008000   ; qtot 77.000132
; residue   77 ccc rtp ccc q 1.0
 2070         c3     77    ccc     C1   2070 0.17060900  12.010000   ; qtot 77.170741
 2071         hx     77    ccc     H1   2071 0.04213200   1.008000   ; qtot 77.212873
 2072         hx     77    ccc     H2   2072 0.04213200   1.008000   ; qtot 77.255005
 2073         c3     77    ccc     C2   2073 -0.04496700  12.010000   ; qtot 77.210038
 2074         hc     77    ccc     H3   2074 0.02647500   1.008000   ; qtot 77.236513
 2075         hc     77    ccc     H4   2075 0.02647500   1.008000   ; qtot 77.262988
 2076         c3     77    ccc     C3   2076 0.04732600  12.010000   ; qtot 77.310314
 2077         h1     77    ccc     H5   2077 0.07030200   1.008000   ; qtot 77.380616
 2078         h1     77    ccc     H6   2078 0.07030200   1.008000   ; qtot 77.450918
 2079         n4     77    ccc     N1   2079 -0.21077700  14.010000   ; qtot 77.240141
 2080         hn     77    ccc     H7   2080 0.28399900   1.008000   ; qtot 77.524140
 2081         hn     77    ccc     H8   2081 0.28399900   1.008000   ; qtot 77.808139
 2082         os     77    ccc     O1   2082 -0.09200600  16.000000   ; qtot 77.716133
 2083         hn     77    ccc    H17   2083 0.28399900   1.008000   ; qtot 78.000132
; residue   78 ccc rtp ccc q 1.0
 2084         c3     78    ccc     C1   2084 0.17060900  12.010000   ; qtot 78.170741
 2085         hx     78    ccc     H1   2085 0.04213200   1.008000   ; qtot 78.212873
 2086         hx     78    ccc     H2   2086 0.04213200   1.008000   ; qtot 78.255005
 2087         c3     78    ccc     C2   2087 -0.04496700  12.010000   ; qtot 78.210038
 2088         hc     78    ccc     H3   2088 0.02647500   1.008000   ; qtot 78.236513
 2089         hc     78    ccc     H4   2089 0.02647500   1.008000   ; qtot 78.262988
 2090         c3     78    ccc     C3   2090 0.04732600  12.010000   ; qtot 78.310314
 2091         h1     78    ccc     H5   2091 0.07030200   1.008000   ; qtot 78.380616
 2092         h1     78    ccc     H6   2092 0.07030200   1.008000   ; qtot 78.450918
 2093         n4     78    ccc     N1   2093 -0.21077700  14.010000   ; qtot 78.240141
 2094         hn     78    ccc     H7   2094 0.28399900   1.008000   ; qtot 78.524140
 2095         hn     78    ccc     H8   2095 0.28399900   1.008000   ; qtot 78.808139
 2096         os     78    ccc     O1   2096 -0.09200600  16.000000   ; qtot 78.716133
 2097         hn     78    ccc    H17   2097 0.28399900   1.008000   ; qtot 79.000132
; residue   79 ccc rtp ccc q 1.0
 2098         c3     79    ccc     C1   2098 0.17060900  12.010000   ; qtot 79.170741
 2099         hx     79    ccc     H1   2099 0.04213200   1.008000   ; qtot 79.212873
 2100         hx     79    ccc     H2   2100 0.04213200   1.008000   ; qtot 79.255005
 2101         c3     79    ccc     C2   2101 -0.04496700  12.010000   ; qtot 79.210038
 2102         hc     79    ccc     H3   2102 0.02647500   1.008000   ; qtot 79.236513
 2103         hc     79    ccc     H4   2103 0.02647500   1.008000   ; qtot 79.262988
 2104         c3     79    ccc     C3   2104 0.04732600  12.010000   ; qtot 79.310314
 2105         h1     79    ccc     H5   2105 0.07030200   1.008000   ; qtot 79.380616
 2106         h1     79    ccc     H6   2106 0.07030200   1.008000   ; qtot 79.450918
 2107         n4     79    ccc     N1   2107 -0.21077700  14.010000   ; qtot 79.240141
 2108         hn     79    ccc     H7   2108 0.28399900   1.008000   ; qtot 79.524140
 2109         hn     79    ccc     H8   2109 0.28399900   1.008000   ; qtot 79.808139
 2110         os     79    ccc     O1   2110 -0.09200600  16.000000   ; qtot 79.716133
 2111         hn     79    ccc    H17   2111 0.28399900   1.008000   ; qtot 80.000132
; residue   80 ccc rtp ccc q 1.0
 2112         c3     80    ccc     C1   2112 0.17060900  12.010000   ; qtot 80.170741
 2113         hx     80    ccc     H1   2113 0.04213200   1.008000   ; qtot 80.212873
 2114         hx     80    ccc     H2   2114 0.04213200   1.008000   ; qtot 80.255005
 2115         c3     80    ccc     C2   2115 -0.04496700  12.010000   ; qtot 80.210038
 2116         hc     80    ccc     H3   2116 0.02647500   1.008000   ; qtot 80.236513
 2117         hc     80    ccc     H4   2117 0.02647500   1.008000   ; qtot 80.262988
 2118         c3     80    ccc     C3   2118 0.04732600  12.010000   ; qtot 80.310314
 2119         h1     80    ccc     H5   2119 0.07030200   1.008000   ; qtot 80.380616
 2120         h1     80    ccc     H6   2120 0.07030200   1.008000   ; qtot 80.450918
 2121         n4     80    ccc     N1   2121 -0.21077700  14.010000   ; qtot 80.240141
 2122         hn     80    ccc     H7   2122 0.28399900   1.008000   ; qtot 80.524140
 2123         hn     80    ccc     H8   2123 0.28399900   1.008000   ; qtot 80.808139
 2124         os     80    ccc     O1   2124 -0.09200600  16.000000   ; qtot 80.716133
 2125         hn     80    ccc    H17   2125 0.28399900   1.008000   ; qtot 81.000132
; residue   81 ccc rtp ccc q 1.0
 2126         c3     81    ccc     C1   2126 0.17060900  12.010000   ; qtot 81.170741
 2127         hx     81    ccc     H1   2127 0.04213200   1.008000   ; qtot 81.212873
 2128         hx     81    ccc     H2   2128 0.04213200   1.008000   ; qtot 81.255005
 2129         c3     81    ccc     C2   2129 -0.04496700  12.010000   ; qtot 81.210038
 2130         hc     81    ccc     H3   2130 0.02647500   1.008000   ; qtot 81.236513
 2131         hc     81    ccc     H4   2131 0.02647500   1.008000   ; qtot 81.262988
 2132         c3     81    ccc     C3   2132 0.04732600  12.010000   ; qtot 81.310314
 2133         h1     81    ccc     H5   2133 0.07030200   1.008000   ; qtot 81.380616
 2134         h1     81    ccc     H6   2134 0.07030200   1.008000   ; qtot 81.450918
 2135         n4     81    ccc     N1   2135 -0.21077700  14.010000   ; qtot 81.240141
 2136         hn     81    ccc     H7   2136 0.28399900   1.008000   ; qtot 81.524140
 2137         hn     81    ccc     H8   2137 0.28399900   1.008000   ; qtot 81.808139
 2138         os     81    ccc     O1   2138 -0.09200600  16.000000   ; qtot 81.716133
 2139         hn     81    ccc    H17   2139 0.28399900   1.008000   ; qtot 82.000132
; residue   82 ccc rtp ccc q 1.0
 2140         c3     82    ccc     C1   2140 0.17060900  12.010000   ; qtot 82.170741
 2141         hx     82    ccc     H1   2141 0.04213200   1.008000   ; qtot 82.212873
 2142         hx     82    ccc     H2   2142 0.04213200   1.008000   ; qtot 82.255005
 2143         c3     82    ccc     C2   2143 -0.04496700  12.010000   ; qtot 82.210038
 2144         hc     82    ccc     H3   2144 0.02647500   1.008000   ; qtot 82.236513
 2145         hc     82    ccc     H4   2145 0.02647500   1.008000   ; qtot 82.262988
 2146         c3     82    ccc     C3   2146 0.04732600  12.010000   ; qtot 82.310314
 2147         h1     82    ccc     H5   2147 0.07030200   1.008000   ; qtot 82.380616
 2148         h1     82    ccc     H6   2148 0.07030200   1.008000   ; qtot 82.450918
 2149         n4     82    ccc     N1   2149 -0.21077700  14.010000   ; qtot 82.240141
 2150         hn     82    ccc     H7   2150 0.28399900   1.008000   ; qtot 82.524140
 2151         hn     82    ccc     H8   2151 0.28399900   1.008000   ; qtot 82.808139
 2152         os     82    ccc     O1   2152 -0.09200600  16.000000   ; qtot 82.716133
 2153         hn     82    ccc    H17   2153 0.28399900   1.008000   ; qtot 83.000132
; residue   83 ccc rtp ccc q 1.0
 2154         c3     83    ccc     C1   2154 0.17060900  12.010000   ; qtot 83.170741
 2155         hx     83    ccc     H1   2155 0.04213200   1.008000   ; qtot 83.212873
 2156         hx     83    ccc     H2   2156 0.04213200   1.008000   ; qtot 83.255005
 2157         c3     83    ccc     C2   2157 -0.04496700  12.010000   ; qtot 83.210038
 2158         hc     83    ccc     H3   2158 0.02647500   1.008000   ; qtot 83.236513
 2159         hc     83    ccc     H4   2159 0.02647500   1.008000   ; qtot 83.262988
 2160         c3     83    ccc     C3   2160 0.04732600  12.010000   ; qtot 83.310314
 2161         h1     83    ccc     H5   2161 0.07030200   1.008000   ; qtot 83.380616
 2162         h1     83    ccc     H6   2162 0.07030200   1.008000   ; qtot 83.450918
 2163         n4     83    ccc     N1   2163 -0.21077700  14.010000   ; qtot 83.240141
 2164         hn     83    ccc     H7   2164 0.28399900   1.008000   ; qtot 83.524140
 2165         hn     83    ccc     H8   2165 0.28399900   1.008000   ; qtot 83.808139
 2166         os     83    ccc     O1   2166 -0.09200600  16.000000   ; qtot 83.716133
 2167         hn     83    ccc    H17   2167 0.28399900   1.008000   ; qtot 84.000132
; residue   84 ccc rtp ccc q 1.0
 2168         c3     84    ccc     C1   2168 0.17060900  12.010000   ; qtot 84.170741
 2169         hx     84    ccc     H1   2169 0.04213200   1.008000   ; qtot 84.212873
 2170         hx     84    ccc     H2   2170 0.04213200   1.008000   ; qtot 84.255005
 2171         c3     84    ccc     C2   2171 -0.04496700  12.010000   ; qtot 84.210038
 2172         hc     84    ccc     H3   2172 0.02647500   1.008000   ; qtot 84.236513
 2173         hc     84    ccc     H4   2173 0.02647500   1.008000   ; qtot 84.262988
 2174         c3     84    ccc     C3   2174 0.04732600  12.010000   ; qtot 84.310314
 2175         h1     84    ccc     H5   2175 0.07030200   1.008000   ; qtot 84.380616
 2176         h1     84    ccc     H6   2176 0.07030200   1.008000   ; qtot 84.450918
 2177         n4     84    ccc     N1   2177 -0.21077700  14.010000   ; qtot 84.240141
 2178         hn     84    ccc     H7   2178 0.28399900   1.008000   ; qtot 84.524140
 2179         hn     84    ccc     H8   2179 0.28399900   1.008000   ; qtot 84.808139
 2180         os     84    ccc     O1   2180 -0.09200600  16.000000   ; qtot 84.716133
 2181         hn     84    ccc    H17   2181 0.28399900   1.008000   ; qtot 85.000132
; residue   85 ccc rtp ccc q 1.0
 2182         c3     85    ccc     C1   2182 0.17060900  12.010000   ; qtot 85.170741
 2183         hx     85    ccc     H1   2183 0.04213200   1.008000   ; qtot 85.212873
 2184         hx     85    ccc     H2   2184 0.04213200   1.008000   ; qtot 85.255005
 2185         c3     85    ccc     C2   2185 -0.04496700  12.010000   ; qtot 85.210038
 2186         hc     85    ccc     H3   2186 0.02647500   1.008000   ; qtot 85.236513
 2187         hc     85    ccc     H4   2187 0.02647500   1.008000   ; qtot 85.262988
 2188         c3     85    ccc     C3   2188 0.04732600  12.010000   ; qtot 85.310314
 2189         h1     85    ccc     H5   2189 0.07030200   1.008000   ; qtot 85.380616
 2190         h1     85    ccc     H6   2190 0.07030200   1.008000   ; qtot 85.450918
 2191         n4     85    ccc     N1   2191 -0.21077700  14.010000   ; qtot 85.240141
 2192         hn     85    ccc     H7   2192 0.28399900   1.008000   ; qtot 85.524140
 2193         hn     85    ccc     H8   2193 0.28399900   1.008000   ; qtot 85.808139
 2194         os     85    ccc     O1   2194 -0.09200600  16.000000   ; qtot 85.716133
 2195         hn     85    ccc    H17   2195 0.28399900   1.008000   ; qtot 86.000132
; residue   86 ccc rtp ccc q 1.0
 2196         c3     86    ccc     C1   2196 0.17060900  12.010000   ; qtot 86.170741
 2197         hx     86    ccc     H1   2197 0.04213200   1.008000   ; qtot 86.212873
 2198         hx     86    ccc     H2   2198 0.04213200   1.008000   ; qtot 86.255005
 2199         c3     86    ccc     C2   2199 -0.04496700  12.010000   ; qtot 86.210038
 2200         hc     86    ccc     H3   2200 0.02647500   1.008000   ; qtot 86.236513
 2201         hc     86    ccc     H4   2201 0.02647500   1.008000   ; qtot 86.262988
 2202         c3     86    ccc     C3   2202 0.04732600  12.010000   ; qtot 86.310314
 2203         h1     86    ccc     H5   2203 0.07030200   1.008000   ; qtot 86.380616
 2204         h1     86    ccc     H6   2204 0.07030200   1.008000   ; qtot 86.450918
 2205         n4     86    ccc     N1   2205 -0.21077700  14.010000   ; qtot 86.240141
 2206         hn     86    ccc     H7   2206 0.28399900   1.008000   ; qtot 86.524140
 2207         hn     86    ccc     H8   2207 0.28399900   1.008000   ; qtot 86.808139
 2208         os     86    ccc     O1   2208 -0.09200600  16.000000   ; qtot 86.716133
 2209         hn     86    ccc    H17   2209 0.28399900   1.008000   ; qtot 87.000132
; residue   87 ccc rtp ccc q 1.0
 2210         c3     87    ccc     C1   2210 0.17060900  12.010000   ; qtot 87.170741
 2211         hx     87    ccc     H1   2211 0.04213200   1.008000   ; qtot 87.212873
 2212         hx     87    ccc     H2   2212 0.04213200   1.008000   ; qtot 87.255005
 2213         c3     87    ccc     C2   2213 -0.04496700  12.010000   ; qtot 87.210038
 2214         hc     87    ccc     H3   2214 0.02647500   1.008000   ; qtot 87.236513
 2215         hc     87    ccc     H4   2215 0.02647500   1.008000   ; qtot 87.262988
 2216         c3     87    ccc     C3   2216 0.04732600  12.010000   ; qtot 87.310314
 2217         h1     87    ccc     H5   2217 0.07030200   1.008000   ; qtot 87.380616
 2218         h1     87    ccc     H6   2218 0.07030200   1.008000   ; qtot 87.450918
 2219         n4     87    ccc     N1   2219 -0.21077700  14.010000   ; qtot 87.240141
 2220         hn     87    ccc     H7   2220 0.28399900   1.008000   ; qtot 87.524140
 2221         hn     87    ccc     H8   2221 0.28399900   1.008000   ; qtot 87.808139
 2222         os     87    ccc     O1   2222 -0.09200600  16.000000   ; qtot 87.716133
 2223         hn     87    ccc    H17   2223 0.28399900   1.008000   ; qtot 88.000132
; residue   88 ccc rtp ccc q 1.0
 2224         c3     88    ccc     C1   2224 0.17060900  12.010000   ; qtot 88.170741
 2225         hx     88    ccc     H1   2225 0.04213200   1.008000   ; qtot 88.212873
 2226         hx     88    ccc     H2   2226 0.04213200   1.008000   ; qtot 88.255005
 2227         c3     88    ccc     C2   2227 -0.04496700  12.010000   ; qtot 88.210038
 2228         hc     88    ccc     H3   2228 0.02647500   1.008000   ; qtot 88.236513
 2229         hc     88    ccc     H4   2229 0.02647500   1.008000   ; qtot 88.262988
 2230         c3     88    ccc     C3   2230 0.04732600  12.010000   ; qtot 88.310314
 2231         h1     88    ccc     H5   2231 0.07030200   1.008000   ; qtot 88.380616
 2232         h1     88    ccc     H6   2232 0.07030200   1.008000   ; qtot 88.450918
 2233         n4     88    ccc     N1   2233 -0.21077700  14.010000   ; qtot 88.240141
 2234         hn     88    ccc     H7   2234 0.28399900   1.008000   ; qtot 88.524140
 2235         hn     88    ccc     H8   2235 0.28399900   1.008000   ; qtot 88.808139
 2236         os     88    ccc     O1   2236 -0.09200600  16.000000   ; qtot 88.716133
 2237         hn     88    ccc    H17   2237 0.28399900   1.008000   ; qtot 89.000132
; residue   89 ccc rtp ccc q 1.0
 2238         c3     89    ccc     C1   2238 0.17060900  12.010000   ; qtot 89.170741
 2239         hx     89    ccc     H1   2239 0.04213200   1.008000   ; qtot 89.212873
 2240         hx     89    ccc     H2   2240 0.04213200   1.008000   ; qtot 89.255005
 2241         c3     89    ccc     C2   2241 -0.04496700  12.010000   ; qtot 89.210038
 2242         hc     89    ccc     H3   2242 0.02647500   1.008000   ; qtot 89.236513
 2243         hc     89    ccc     H4   2243 0.02647500   1.008000   ; qtot 89.262988
 2244         c3     89    ccc     C3   2244 0.04732600  12.010000   ; qtot 89.310314
 2245         h1     89    ccc     H5   2245 0.07030200   1.008000   ; qtot 89.380616
 2246         h1     89    ccc     H6   2246 0.07030200   1.008000   ; qtot 89.450918
 2247         n4     89    ccc     N1   2247 -0.21077700  14.010000   ; qtot 89.240141
 2248         hn     89    ccc     H7   2248 0.28399900   1.008000   ; qtot 89.524140
 2249         hn     89    ccc     H8   2249 0.28399900   1.008000   ; qtot 89.808139
 2250         os     89    ccc     O1   2250 -0.09200600  16.000000   ; qtot 89.716133
 2251         hn     89    ccc    H17   2251 0.28399900   1.008000   ; qtot 90.000132
; residue   90 ccc rtp ccc q 1.0
 2252         c3     90    ccc     C1   2252 0.17060900  12.010000   ; qtot 90.170741
 2253         hx     90    ccc     H1   2253 0.04213200   1.008000   ; qtot 90.212873
 2254         hx     90    ccc     H2   2254 0.04213200   1.008000   ; qtot 90.255005
 2255         c3     90    ccc     C2   2255 -0.04496700  12.010000   ; qtot 90.210038
 2256         hc     90    ccc     H3   2256 0.02647500   1.008000   ; qtot 90.236513
 2257         hc     90    ccc     H4   2257 0.02647500   1.008000   ; qtot 90.262988
 2258         c3     90    ccc     C3   2258 0.04732600  12.010000   ; qtot 90.310314
 2259         h1     90    ccc     H5   2259 0.07030200   1.008000   ; qtot 90.380616
 2260         h1     90    ccc     H6   2260 0.07030200   1.008000   ; qtot 90.450918
 2261         n4     90    ccc     N1   2261 -0.21077700  14.010000   ; qtot 90.240141
 2262         hn     90    ccc     H7   2262 0.28399900   1.008000   ; qtot 90.524140
 2263         hn     90    ccc     H8   2263 0.28399900   1.008000   ; qtot 90.808139
 2264         os     90    ccc     O1   2264 -0.09200600  16.000000   ; qtot 90.716133
 2265         hn     90    ccc    H17   2265 0.28399900   1.008000   ; qtot 91.000132
; residue   91 ccc rtp ccc q 1.0
 2266         c3     91    ccc     C1   2266 0.17060900  12.010000   ; qtot 91.170741
 2267         hx     91    ccc     H1   2267 0.04213200   1.008000   ; qtot 91.212873
 2268         hx     91    ccc     H2   2268 0.04213200   1.008000   ; qtot 91.255005
 2269         c3     91    ccc     C2   2269 -0.04496700  12.010000   ; qtot 91.210038
 2270         hc     91    ccc     H3   2270 0.02647500   1.008000   ; qtot 91.236513
 2271         hc     91    ccc     H4   2271 0.02647500   1.008000   ; qtot 91.262988
 2272         c3     91    ccc     C3   2272 0.04732600  12.010000   ; qtot 91.310314
 2273         h1     91    ccc     H5   2273 0.07030200   1.008000   ; qtot 91.380616
 2274         h1     91    ccc     H6   2274 0.07030200   1.008000   ; qtot 91.450918
 2275         n4     91    ccc     N1   2275 -0.21077700  14.010000   ; qtot 91.240141
 2276         hn     91    ccc     H7   2276 0.28399900   1.008000   ; qtot 91.524140
 2277         hn     91    ccc     H8   2277 0.28399900   1.008000   ; qtot 91.808139
 2278         os     91    ccc     O1   2278 -0.09200600  16.000000   ; qtot 91.716133
 2279         hn     91    ccc    H17   2279 0.28399900   1.008000   ; qtot 92.000132
; residue   92 ccc rtp ccc q 1.0
 2280         c3     92    ccc     C1   2280 0.17060900  12.010000   ; qtot 92.170741
 2281         hx     92    ccc     H1   2281 0.04213200   1.008000   ; qtot 92.212873
 2282         hx     92    ccc     H2   2282 0.04213200   1.008000   ; qtot 92.255005
 2283         c3     92    ccc     C2   2283 -0.04496700  12.010000   ; qtot 92.210038
 2284         hc     92    ccc     H3   2284 0.02647500   1.008000   ; qtot 92.236513
 2285         hc     92    ccc     H4   2285 0.02647500   1.008000   ; qtot 92.262988
 2286         c3     92    ccc     C3   2286 0.04732600  12.010000   ; qtot 92.310314
 2287         h1     92    ccc     H5   2287 0.07030200   1.008000   ; qtot 92.380616
 2288         h1     92    ccc     H6   2288 0.07030200   1.008000   ; qtot 92.450918
 2289         n4     92    ccc     N1   2289 -0.21077700  14.010000   ; qtot 92.240141
 2290         hn     92    ccc     H7   2290 0.28399900   1.008000   ; qtot 92.524140
 2291         hn     92    ccc     H8   2291 0.28399900   1.008000   ; qtot 92.808139
 2292         os     92    ccc     O1   2292 -0.09200600  16.000000   ; qtot 92.716133
 2293         hn     92    ccc    H17   2293 0.28399900   1.008000   ; qtot 93.000132
; residue   93 ccc rtp ccc q 1.0
 2294         c3     93    ccc     C1   2294 0.17060900  12.010000   ; qtot 93.170741
 2295         hx     93    ccc     H1   2295 0.04213200   1.008000   ; qtot 93.212873
 2296         hx     93    ccc     H2   2296 0.04213200   1.008000   ; qtot 93.255005
 2297         c3     93    ccc     C2   2297 -0.04496700  12.010000   ; qtot 93.210038
 2298         hc     93    ccc     H3   2298 0.02647500   1.008000   ; qtot 93.236513
 2299         hc     93    ccc     H4   2299 0.02647500   1.008000   ; qtot 93.262988
 2300         c3     93    ccc     C3   2300 0.04732600  12.010000   ; qtot 93.310314
 2301         h1     93    ccc     H5   2301 0.07030200   1.008000   ; qtot 93.380616
 2302         h1     93    ccc     H6   2302 0.07030200   1.008000   ; qtot 93.450918
 2303         n4     93    ccc     N1   2303 -0.21077700  14.010000   ; qtot 93.240141
 2304         hn     93    ccc     H7   2304 0.28399900   1.008000   ; qtot 93.524140
 2305         hn     93    ccc     H8   2305 0.28399900   1.008000   ; qtot 93.808139
 2306         os     93    ccc     O1   2306 -0.09200600  16.000000   ; qtot 93.716133
 2307         hn     93    ccc    H17   2307 0.28399900   1.008000   ; qtot 94.000132
; residue   94 ccc rtp ccc q 1.0
 2308         c3     94    ccc     C1   2308 0.17060900  12.010000   ; qtot 94.170741
 2309         hx     94    ccc     H1   2309 0.04213200   1.008000   ; qtot 94.212873
 2310         hx     94    ccc     H2   2310 0.04213200   1.008000   ; qtot 94.255005
 2311         c3     94    ccc     C2   2311 -0.04496700  12.010000   ; qtot 94.210038
 2312         hc     94    ccc     H3   2312 0.02647500   1.008000   ; qtot 94.236513
 2313         hc     94    ccc     H4   2313 0.02647500   1.008000   ; qtot 94.262988
 2314         c3     94    ccc     C3   2314 0.04732600  12.010000   ; qtot 94.310314
 2315         h1     94    ccc     H5   2315 0.07030200   1.008000   ; qtot 94.380616
 2316         h1     94    ccc     H6   2316 0.07030200   1.008000   ; qtot 94.450918
 2317         n4     94    ccc     N1   2317 -0.21077700  14.010000   ; qtot 94.240141
 2318         hn     94    ccc     H7   2318 0.28399900   1.008000   ; qtot 94.524140
 2319         hn     94    ccc     H8   2319 0.28399900   1.008000   ; qtot 94.808139
 2320         os     94    ccc     O1   2320 -0.09200600  16.000000   ; qtot 94.716133
 2321         hn     94    ccc    H17   2321 0.28399900   1.008000   ; qtot 95.000132
; residue   95 ccc rtp ccc q 1.0
 2322         c3     95    ccc     C1   2322 0.17060900  12.010000   ; qtot 95.170741
 2323         hx     95    ccc     H1   2323 0.04213200   1.008000   ; qtot 95.212873
 2324         hx     95    ccc     H2   2324 0.04213200   1.008000   ; qtot 95.255005
 2325         c3     95    ccc     C2   2325 -0.04496700  12.010000   ; qtot 95.210038
 2326         hc     95    ccc     H3   2326 0.02647500   1.008000   ; qtot 95.236513
 2327         hc     95    ccc     H4   2327 0.02647500   1.008000   ; qtot 95.262988
 2328         c3     95    ccc     C3   2328 0.04732600  12.010000   ; qtot 95.310314
 2329         h1     95    ccc     H5   2329 0.07030200   1.008000   ; qtot 95.380616
 2330         h1     95    ccc     H6   2330 0.07030200   1.008000   ; qtot 95.450918
 2331         n4     95    ccc     N1   2331 -0.21077700  14.010000   ; qtot 95.240141
 2332         hn     95    ccc     H7   2332 0.28399900   1.008000   ; qtot 95.524140
 2333         hn     95    ccc     H8   2333 0.28399900   1.008000   ; qtot 95.808139
 2334         os     95    ccc     O1   2334 -0.09200600  16.000000   ; qtot 95.716133
 2335         hn     95    ccc    H17   2335 0.28399900   1.008000   ; qtot 96.000132
; residue   96 ccc rtp ccc q 1.0
 2336         c3     96    ccc     C1   2336 0.17060900  12.010000   ; qtot 96.170741
 2337         hx     96    ccc     H1   2337 0.04213200   1.008000   ; qtot 96.212873
 2338         hx     96    ccc     H2   2338 0.04213200   1.008000   ; qtot 96.255005
 2339         c3     96    ccc     C2   2339 -0.04496700  12.010000   ; qtot 96.210038
 2340         hc     96    ccc     H3   2340 0.02647500   1.008000   ; qtot 96.236513
 2341         hc     96    ccc     H4   2341 0.02647500   1.008000   ; qtot 96.262988
 2342         c3     96    ccc     C3   2342 0.04732600  12.010000   ; qtot 96.310314
 2343         h1     96    ccc     H5   2343 0.07030200   1.008000   ; qtot 96.380616
 2344         h1     96    ccc     H6   2344 0.07030200   1.008000   ; qtot 96.450918
 2345         n4     96    ccc     N1   2345 -0.21077700  14.010000   ; qtot 96.240141
 2346         hn     96    ccc     H7   2346 0.28399900   1.008000   ; qtot 96.524140
 2347         hn     96    ccc     H8   2347 0.28399900   1.008000   ; qtot 96.808139
 2348         os     96    ccc     O1   2348 -0.09200600  16.000000   ; qtot 96.716133
 2349         hn     96    ccc    H17   2349 0.28399900   1.008000   ; qtot 97.000132
; residue   97 ccc rtp ccc q 1.0
 2350         c3     97    ccc     C1   2350 0.17060900  12.010000   ; qtot 97.170741
 2351         hx     97    ccc     H1   2351 0.04213200   1.008000   ; qtot 97.212873
 2352         hx     97    ccc     H2   2352 0.04213200   1.008000   ; qtot 97.255005
 2353         c3     97    ccc     C2   2353 -0.04496700  12.010000   ; qtot 97.210038
 2354         hc     97    ccc     H3   2354 0.02647500   1.008000   ; qtot 97.236513
 2355         hc     97    ccc     H4   2355 0.02647500   1.008000   ; qtot 97.262988
 2356         c3     97    ccc     C3   2356 0.04732600  12.010000   ; qtot 97.310314
 2357         h1     97    ccc     H5   2357 0.07030200   1.008000   ; qtot 97.380616
 2358         h1     97    ccc     H6   2358 0.07030200   1.008000   ; qtot 97.450918
 2359         n4     97    ccc     N1   2359 -0.21077700  14.010000   ; qtot 97.240141
 2360         hn     97    ccc     H7   2360 0.28399900   1.008000   ; qtot 97.524140
 2361         hn     97    ccc     H8   2361 0.28399900   1.008000   ; qtot 97.808139
 2362         os     97    ccc     O1   2362 -0.09200600  16.000000   ; qtot 97.716133
 2363         hn     97    ccc    H17   2363 0.28399900   1.008000   ; qtot 98.000132
; residue   98 ccc rtp ccc q 1.0
 2364         c3     98    ccc     C1   2364 0.17060900  12.010000   ; qtot 98.170741
 2365         hx     98    ccc     H1   2365 0.04213200   1.008000   ; qtot 98.212873
 2366         hx     98    ccc     H2   2366 0.04213200   1.008000   ; qtot 98.255005
 2367         c3     98    ccc     C2   2367 -0.04496700  12.010000   ; qtot 98.210038
 2368         hc     98    ccc     H3   2368 0.02647500   1.008000   ; qtot 98.236513
 2369         hc     98    ccc     H4   2369 0.02647500   1.008000   ; qtot 98.262988
 2370         c3     98    ccc     C3   2370 0.04732600  12.010000   ; qtot 98.310314
 2371         h1     98    ccc     H5   2371 0.07030200   1.008000   ; qtot 98.380616
 2372         h1     98    ccc     H6   2372 0.07030200   1.008000   ; qtot 98.450918
 2373         n4     98    ccc     N1   2373 -0.21077700  14.010000   ; qtot 98.240141
 2374         hn     98    ccc     H7   2374 0.28399900   1.008000   ; qtot 98.524140
 2375         hn     98    ccc     H8   2375 0.28399900   1.008000   ; qtot 98.808139
 2376         os     98    ccc     O1   2376 -0.09200600  16.000000   ; qtot 98.716133
 2377         hn     98    ccc    H17   2377 0.28399900   1.008000   ; qtot 99.000132
; residue   99 ccc rtp ccc q 1.0
 2378         c3     99    ccc     C1   2378 0.17060900  12.010000   ; qtot 99.170741
 2379         hx     99    ccc     H1   2379 0.04213200   1.008000   ; qtot 99.212873
 2380         hx     99    ccc     H2   2380 0.04213200   1.008000   ; qtot 99.255005
 2381         c3     99    ccc     C2   2381 -0.04496700  12.010000   ; qtot 99.210038
 2382         hc     99    ccc     H3   2382 0.02647500   1.008000   ; qtot 99.236513
 2383         hc     99    ccc     H4   2383 0.02647500   1.008000   ; qtot 99.262988
 2384         c3     99    ccc     C3   2384 0.04732600  12.010000   ; qtot 99.310314
 2385         h1     99    ccc     H5   2385 0.07030200   1.008000   ; qtot 99.380616
 2386         h1     99    ccc     H6   2386 0.07030200   1.008000   ; qtot 99.450918
 2387         n4     99    ccc     N1   2387 -0.21077700  14.010000   ; qtot 99.240141
 2388         hn     99    ccc     H7   2388 0.28399900   1.008000   ; qtot 99.524140
 2389         hn     99    ccc     H8   2389 0.28399900   1.008000   ; qtot 99.808139
 2390         os     99    ccc     O1   2390 -0.09200600  16.000000   ; qtot 99.716133
 2391         hn     99    ccc    H17   2391 0.28399900   1.008000   ; qtot 100.000132
; residue  100 ccc rtp ccc q 1.0
 2392         c3    100    ccc     C1   2392 0.17060900  12.010000   ; qtot 100.170741
 2393         hx    100    ccc     H1   2393 0.04213200   1.008000   ; qtot 100.212873
 2394         hx    100    ccc     H2   2394 0.04213200   1.008000   ; qtot 100.255005
 2395         c3    100    ccc     C2   2395 -0.04496700  12.010000   ; qtot 100.210038
 2396         hc    100    ccc     H3   2396 0.02647500   1.008000   ; qtot 100.236513
 2397         hc    100    ccc     H4   2397 0.02647500   1.008000   ; qtot 100.262988
 2398         c3    100    ccc     C3   2398 0.04732600  12.010000   ; qtot 100.310314
 2399         h1    100    ccc     H5   2399 0.07030200   1.008000   ; qtot 100.380616
 2400         h1    100    ccc     H6   2400 0.07030200   1.008000   ; qtot 100.450918
 2401         n4    100    ccc     N1   2401 -0.21077700  14.010000   ; qtot 100.240141
 2402         hn    100    ccc     H7   2402 0.28399900   1.008000   ; qtot 100.524140
 2403         hn    100    ccc     H8   2403 0.28399900   1.008000   ; qtot 100.808139
 2404         os    100    ccc     O1   2404 -0.09200600  16.000000   ; qtot 100.716133
 2405         hn    100    ccc    H17   2405 0.28399900   1.008000   ; qtot 101.000132
; residue  101 ccc rtp ccc q 1.0
 2406         c3    101    ccc     C1   2406 0.17060900  12.010000   ; qtot 101.170741
 2407         hx    101    ccc     H1   2407 0.04213200   1.008000   ; qtot 101.212873
 2408         hx    101    ccc     H2   2408 0.04213200   1.008000   ; qtot 101.255005
 2409         c3    101    ccc     C2   2409 -0.04496700  12.010000   ; qtot 101.210038
 2410         hc    101    ccc     H3   2410 0.02647500   1.008000   ; qtot 101.236513
 2411         hc    101    ccc     H4   2411 0.02647500   1.008000   ; qtot 101.262988
 2412         c3    101    ccc     C3   2412 0.04732600  12.010000   ; qtot 101.310314
 2413         h1    101    ccc     H5   2413 0.07030200   1.008000   ; qtot 101.380616
 2414         h1    101    ccc     H6   2414 0.07030200   1.008000   ; qtot 101.450918
 2415         n4    101    ccc     N1   2415 -0.21077700  14.010000   ; qtot 101.240141
 2416         hn    101    ccc     H7   2416 0.28399900   1.008000   ; qtot 101.524140
 2417         hn    101    ccc     H8   2417 0.28399900   1.008000   ; qtot 101.808139
 2418         os    101    ccc     O1   2418 -0.09200600  16.000000   ; qtot 101.716133
 2419         hn    101    ccc    H17   2419 0.28399900   1.008000   ; qtot 102.000132
; residue  102 ccc rtp ccc q 1.0
 2420         c3    102    ccc     C1   2420 0.17060900  12.010000   ; qtot 102.170741
 2421         hx    102    ccc     H1   2421 0.04213200   1.008000   ; qtot 102.212873
 2422         hx    102    ccc     H2   2422 0.04213200   1.008000   ; qtot 102.255005
 2423         c3    102    ccc     C2   2423 -0.04496700  12.010000   ; qtot 102.210038
 2424         hc    102    ccc     H3   2424 0.02647500   1.008000   ; qtot 102.236513
 2425         hc    102    ccc     H4   2425 0.02647500   1.008000   ; qtot 102.262988
 2426         c3    102    ccc     C3   2426 0.04732600  12.010000   ; qtot 102.310314
 2427         h1    102    ccc     H5   2427 0.07030200   1.008000   ; qtot 102.380616
 2428         h1    102    ccc     H6   2428 0.07030200   1.008000   ; qtot 102.450918
 2429         n4    102    ccc     N1   2429 -0.21077700  14.010000   ; qtot 102.240141
 2430         hn    102    ccc     H7   2430 0.28399900   1.008000   ; qtot 102.524140
 2431         hn    102    ccc     H8   2431 0.28399900   1.008000   ; qtot 102.808139
 2432         os    102    ccc     O1   2432 -0.09200600  16.000000   ; qtot 102.716133
 2433         hn    102    ccc    H17   2433 0.28399900   1.008000   ; qtot 103.000132
; residue  103 ccc rtp ccc q 1.0
 2434         c3    103    ccc     C1   2434 0.17060900  12.010000   ; qtot 103.170741
 2435         hx    103    ccc     H1   2435 0.04213200   1.008000   ; qtot 103.212873
 2436         hx    103    ccc     H2   2436 0.04213200   1.008000   ; qtot 103.255005
 2437         c3    103    ccc     C2   2437 -0.04496700  12.010000   ; qtot 103.210038
 2438         hc    103    ccc     H3   2438 0.02647500   1.008000   ; qtot 103.236513
 2439         hc    103    ccc     H4   2439 0.02647500   1.008000   ; qtot 103.262988
 2440         c3    103    ccc     C3   2440 0.04732600  12.010000   ; qtot 103.310314
 2441         h1    103    ccc     H5   2441 0.07030200   1.008000   ; qtot 103.380616
 2442         h1    103    ccc     H6   2442 0.07030200   1.008000   ; qtot 103.450918
 2443         n4    103    ccc     N1   2443 -0.21077700  14.010000   ; qtot 103.240141
 2444         hn    103    ccc     H7   2444 0.28399900   1.008000   ; qtot 103.524140
 2445         hn    103    ccc     H8   2445 0.28399900   1.008000   ; qtot 103.808139
 2446         os    103    ccc     O1   2446 -0.09200600  16.000000   ; qtot 103.716133
 2447         hn    103    ccc    H17   2447 0.28399900   1.008000   ; qtot 104.000132
; residue  104 ccc rtp ccc q 1.0
 2448         c3    104    ccc     C1   2448 0.17060900  12.010000   ; qtot 104.170741
 2449         hx    104    ccc     H1   2449 0.04213200   1.008000   ; qtot 104.212873
 2450         hx    104    ccc     H2   2450 0.04213200   1.008000   ; qtot 104.255005
 2451         c3    104    ccc     C2   2451 -0.04496700  12.010000   ; qtot 104.210038
 2452         hc    104    ccc     H3   2452 0.02647500   1.008000   ; qtot 104.236513
 2453         hc    104    ccc     H4   2453 0.02647500   1.008000   ; qtot 104.262988
 2454         c3    104    ccc     C3   2454 0.04732600  12.010000   ; qtot 104.310314
 2455         h1    104    ccc     H5   2455 0.07030200   1.008000   ; qtot 104.380616
 2456         h1    104    ccc     H6   2456 0.07030200   1.008000   ; qtot 104.450918
 2457         n4    104    ccc     N1   2457 -0.21077700  14.010000   ; qtot 104.240141
 2458         hn    104    ccc     H7   2458 0.28399900   1.008000   ; qtot 104.524140
 2459         hn    104    ccc     H8   2459 0.28399900   1.008000   ; qtot 104.808139
 2460         os    104    ccc     O1   2460 -0.09200600  16.000000   ; qtot 104.716133
 2461         hn    104    ccc    H17   2461 0.28399900   1.008000   ; qtot 105.000132
; residue  105 ccc rtp ccc q 1.0
 2462         c3    105    ccc     C1   2462 0.17060900  12.010000   ; qtot 105.170741
 2463         hx    105    ccc     H1   2463 0.04213200   1.008000   ; qtot 105.212873
 2464         hx    105    ccc     H2   2464 0.04213200   1.008000   ; qtot 105.255005
 2465         c3    105    ccc     C2   2465 -0.04496700  12.010000   ; qtot 105.210038
 2466         hc    105    ccc     H3   2466 0.02647500   1.008000   ; qtot 105.236513
 2467         hc    105    ccc     H4   2467 0.02647500   1.008000   ; qtot 105.262988
 2468         c3    105    ccc     C3   2468 0.04732600  12.010000   ; qtot 105.310314
 2469         h1    105    ccc     H5   2469 0.07030200   1.008000   ; qtot 105.380616
 2470         h1    105    ccc     H6   2470 0.07030200   1.008000   ; qtot 105.450918
 2471         n4    105    ccc     N1   2471 -0.21077700  14.010000   ; qtot 105.240141
 2472         hn    105    ccc     H7   2472 0.28399900   1.008000   ; qtot 105.524140
 2473         hn    105    ccc     H8   2473 0.28399900   1.008000   ; qtot 105.808139
 2474         os    105    ccc     O1   2474 -0.09200600  16.000000   ; qtot 105.716133
 2475         hn    105    ccc    H17   2475 0.28399900   1.008000   ; qtot 106.000132
; residue  106 ccc rtp ccc q 1.0
 2476         c3    106    ccc     C1   2476 0.17060900  12.010000   ; qtot 106.170741
 2477         hx    106    ccc     H1   2477 0.04213200   1.008000   ; qtot 106.212873
 2478         hx    106    ccc     H2   2478 0.04213200   1.008000   ; qtot 106.255005
 2479         c3    106    ccc     C2   2479 -0.04496700  12.010000   ; qtot 106.210038
 2480         hc    106    ccc     H3   2480 0.02647500   1.008000   ; qtot 106.236513
 2481         hc    106    ccc     H4   2481 0.02647500   1.008000   ; qtot 106.262988
 2482         c3    106    ccc     C3   2482 0.04732600  12.010000   ; qtot 106.310314
 2483         h1    106    ccc     H5   2483 0.07030200   1.008000   ; qtot 106.380616
 2484         h1    106    ccc     H6   2484 0.07030200   1.008000   ; qtot 106.450918
 2485         n4    106    ccc     N1   2485 -0.21077700  14.010000   ; qtot 106.240141
 2486         hn    106    ccc     H7   2486 0.28399900   1.008000   ; qtot 106.524140
 2487         hn    106    ccc     H8   2487 0.28399900   1.008000   ; qtot 106.808139
 2488         os    106    ccc     O1   2488 -0.09200600  16.000000   ; qtot 106.716133
 2489         hn    106    ccc    H17   2489 0.28399900   1.008000   ; qtot 107.000132
; residue  107 ccc rtp ccc q 1.0
 2490         c3    107    ccc     C1   2490 0.17060900  12.010000   ; qtot 107.170741
 2491         hx    107    ccc     H1   2491 0.04213200   1.008000   ; qtot 107.212873
 2492         hx    107    ccc     H2   2492 0.04213200   1.008000   ; qtot 107.255005
 2493         c3    107    ccc     C2   2493 -0.04496700  12.010000   ; qtot 107.210038
 2494         hc    107    ccc     H3   2494 0.02647500   1.008000   ; qtot 107.236513
 2495         hc    107    ccc     H4   2495 0.02647500   1.008000   ; qtot 107.262988
 2496         c3    107    ccc     C3   2496 0.04732600  12.010000   ; qtot 107.310314
 2497         h1    107    ccc     H5   2497 0.07030200   1.008000   ; qtot 107.380616
 2498         h1    107    ccc     H6   2498 0.07030200   1.008000   ; qtot 107.450918
 2499         n4    107    ccc     N1   2499 -0.21077700  14.010000   ; qtot 107.240141
 2500         hn    107    ccc     H7   2500 0.28399900   1.008000   ; qtot 107.524140
 2501         hn    107    ccc     H8   2501 0.28399900   1.008000   ; qtot 107.808139
 2502         os    107    ccc     O1   2502 -0.09200600  16.000000   ; qtot 107.716133
 2503         hn    107    ccc    H17   2503 0.28399900   1.008000   ; qtot 108.000132
; residue  108 ccc rtp ccc q 1.0
 2504         c3    108    ccc     C1   2504 0.17060900  12.010000   ; qtot 108.170741
 2505         hx    108    ccc     H1   2505 0.04213200   1.008000   ; qtot 108.212873
 2506         hx    108    ccc     H2   2506 0.04213200   1.008000   ; qtot 108.255005
 2507         c3    108    ccc     C2   2507 -0.04496700  12.010000   ; qtot 108.210038
 2508         hc    108    ccc     H3   2508 0.02647500   1.008000   ; qtot 108.236513
 2509         hc    108    ccc     H4   2509 0.02647500   1.008000   ; qtot 108.262988
 2510         c3    108    ccc     C3   2510 0.04732600  12.010000   ; qtot 108.310314
 2511         h1    108    ccc     H5   2511 0.07030200   1.008000   ; qtot 108.380616
 2512         h1    108    ccc     H6   2512 0.07030200   1.008000   ; qtot 108.450918
 2513         n4    108    ccc     N1   2513 -0.21077700  14.010000   ; qtot 108.240141
 2514         hn    108    ccc     H7   2514 0.28399900   1.008000   ; qtot 108.524140
 2515         hn    108    ccc     H8   2515 0.28399900   1.008000   ; qtot 108.808139
 2516         os    108    ccc     O1   2516 -0.09200600  16.000000   ; qtot 108.716133
 2517         hn    108    ccc    H17   2517 0.28399900   1.008000   ; qtot 109.000132
; residue  109 ccc rtp ccc q 1.0
 2518         c3    109    ccc     C1   2518 0.17060900  12.010000   ; qtot 109.170741
 2519         hx    109    ccc     H1   2519 0.04213200   1.008000   ; qtot 109.212873
 2520         hx    109    ccc     H2   2520 0.04213200   1.008000   ; qtot 109.255005
 2521         c3    109    ccc     C2   2521 -0.04496700  12.010000   ; qtot 109.210038
 2522         hc    109    ccc     H3   2522 0.02647500   1.008000   ; qtot 109.236513
 2523         hc    109    ccc     H4   2523 0.02647500   1.008000   ; qtot 109.262988
 2524         c3    109    ccc     C3   2524 0.04732600  12.010000   ; qtot 109.310314
 2525         h1    109    ccc     H5   2525 0.07030200   1.008000   ; qtot 109.380616
 2526         h1    109    ccc     H6   2526 0.07030200   1.008000   ; qtot 109.450918
 2527         n4    109    ccc     N1   2527 -0.21077700  14.010000   ; qtot 109.240141
 2528         hn    109    ccc     H7   2528 0.28399900   1.008000   ; qtot 109.524140
 2529         hn    109    ccc     H8   2529 0.28399900   1.008000   ; qtot 109.808139
 2530         os    109    ccc     O1   2530 -0.09200600  16.000000   ; qtot 109.716133
 2531         hn    109    ccc    H17   2531 0.28399900   1.008000   ; qtot 110.000132
; residue  110 ccc rtp ccc q 1.0
 2532         c3    110    ccc     C1   2532 0.17060900  12.010000   ; qtot 110.170741
 2533         hx    110    ccc     H1   2533 0.04213200   1.008000   ; qtot 110.212873
 2534         hx    110    ccc     H2   2534 0.04213200   1.008000   ; qtot 110.255005
 2535         c3    110    ccc     C2   2535 -0.04496700  12.010000   ; qtot 110.210038
 2536         hc    110    ccc     H3   2536 0.02647500   1.008000   ; qtot 110.236513
 2537         hc    110    ccc     H4   2537 0.02647500   1.008000   ; qtot 110.262988
 2538         c3    110    ccc     C3   2538 0.04732600  12.010000   ; qtot 110.310314
 2539         h1    110    ccc     H5   2539 0.07030200   1.008000   ; qtot 110.380616
 2540         h1    110    ccc     H6   2540 0.07030200   1.008000   ; qtot 110.450918
 2541         n4    110    ccc     N1   2541 -0.21077700  14.010000   ; qtot 110.240141
 2542         hn    110    ccc     H7   2542 0.28399900   1.008000   ; qtot 110.524140
 2543         hn    110    ccc     H8   2543 0.28399900   1.008000   ; qtot 110.808139
 2544         os    110    ccc     O1   2544 -0.09200600  16.000000   ; qtot 110.716133
 2545         hn    110    ccc    H17   2545 0.28399900   1.008000   ; qtot 111.000132
; residue  111 ccc rtp ccc q 1.0
 2546         c3    111    ccc     C1   2546 0.17060900  12.010000   ; qtot 111.170741
 2547         hx    111    ccc     H1   2547 0.04213200   1.008000   ; qtot 111.212873
 2548         hx    111    ccc     H2   2548 0.04213200   1.008000   ; qtot 111.255005
 2549         c3    111    ccc     C2   2549 -0.04496700  12.010000   ; qtot 111.210038
 2550         hc    111    ccc     H3   2550 0.02647500   1.008000   ; qtot 111.236513
 2551         hc    111    ccc     H4   2551 0.02647500   1.008000   ; qtot 111.262988
 2552         c3    111    ccc     C3   2552 0.04732600  12.010000   ; qtot 111.310314
 2553         h1    111    ccc     H5   2553 0.07030200   1.008000   ; qtot 111.380616
 2554         h1    111    ccc     H6   2554 0.07030200   1.008000   ; qtot 111.450918
 2555         n4    111    ccc     N1   2555 -0.21077700  14.010000   ; qtot 111.240141
 2556         hn    111    ccc     H7   2556 0.28399900   1.008000   ; qtot 111.524140
 2557         hn    111    ccc     H8   2557 0.28399900   1.008000   ; qtot 111.808139
 2558         os    111    ccc     O1   2558 -0.09200600  16.000000   ; qtot 111.716133
 2559         hn    111    ccc    H17   2559 0.28399900   1.008000   ; qtot 112.000132
; residue  112 ccc rtp ccc q 1.0
 2560         c3    112    ccc     C1   2560 0.17060900  12.010000   ; qtot 112.170741
 2561         hx    112    ccc     H1   2561 0.04213200   1.008000   ; qtot 112.212873
 2562         hx    112    ccc     H2   2562 0.04213200   1.008000   ; qtot 112.255005
 2563         c3    112    ccc     C2   2563 -0.04496700  12.010000   ; qtot 112.210038
 2564         hc    112    ccc     H3   2564 0.02647500   1.008000   ; qtot 112.236513
 2565         hc    112    ccc     H4   2565 0.02647500   1.008000   ; qtot 112.262988
 2566         c3    112    ccc     C3   2566 0.04732600  12.010000   ; qtot 112.310314
 2567         h1    112    ccc     H5   2567 0.07030200   1.008000   ; qtot 112.380616
 2568         h1    112    ccc     H6   2568 0.07030200   1.008000   ; qtot 112.450918
 2569         n4    112    ccc     N1   2569 -0.21077700  14.010000   ; qtot 112.240141
 2570         hn    112    ccc     H7   2570 0.28399900   1.008000   ; qtot 112.524140
 2571         hn    112    ccc     H8   2571 0.28399900   1.008000   ; qtot 112.808139
 2572         os    112    ccc     O1   2572 -0.09200600  16.000000   ; qtot 112.716133
 2573         hn    112    ccc    H17   2573 0.28399900   1.008000   ; qtot 113.000132
; residue  113 ccc rtp ccc q 1.0
 2574         c3    113    ccc     C1   2574 0.17060900  12.010000   ; qtot 113.170741
 2575         hx    113    ccc     H1   2575 0.04213200   1.008000   ; qtot 113.212873
 2576         hx    113    ccc     H2   2576 0.04213200   1.008000   ; qtot 113.255005
 2577         c3    113    ccc     C2   2577 -0.04496700  12.010000   ; qtot 113.210038
 2578         hc    113    ccc     H3   2578 0.02647500   1.008000   ; qtot 113.236513
 2579         hc    113    ccc     H4   2579 0.02647500   1.008000   ; qtot 113.262988
 2580         c3    113    ccc     C3   2580 0.04732600  12.010000   ; qtot 113.310314
 2581         h1    113    ccc     H5   2581 0.07030200   1.008000   ; qtot 113.380616
 2582         h1    113    ccc     H6   2582 0.07030200   1.008000   ; qtot 113.450918
 2583         n4    113    ccc     N1   2583 -0.21077700  14.010000   ; qtot 113.240141
 2584         hn    113    ccc     H7   2584 0.28399900   1.008000   ; qtot 113.524140
 2585         hn    113    ccc     H8   2585 0.28399900   1.008000   ; qtot 113.808139
 2586         os    113    ccc     O1   2586 -0.09200600  16.000000   ; qtot 113.716133
 2587         hn    113    ccc    H17   2587 0.28399900   1.008000   ; qtot 114.000132
; residue  114 ccc rtp ccc q 1.0
 2588         c3    114    ccc     C1   2588 0.17060900  12.010000   ; qtot 114.170741
 2589         hx    114    ccc     H1   2589 0.04213200   1.008000   ; qtot 114.212873
 2590         hx    114    ccc     H2   2590 0.04213200   1.008000   ; qtot 114.255005
 2591         c3    114    ccc     C2   2591 -0.04496700  12.010000   ; qtot 114.210038
 2592         hc    114    ccc     H3   2592 0.02647500   1.008000   ; qtot 114.236513
 2593         hc    114    ccc     H4   2593 0.02647500   1.008000   ; qtot 114.262988
 2594         c3    114    ccc     C3   2594 0.04732600  12.010000   ; qtot 114.310314
 2595         h1    114    ccc     H5   2595 0.07030200   1.008000   ; qtot 114.380616
 2596         h1    114    ccc     H6   2596 0.07030200   1.008000   ; qtot 114.450918
 2597         n4    114    ccc     N1   2597 -0.21077700  14.010000   ; qtot 114.240141
 2598         hn    114    ccc     H7   2598 0.28399900   1.008000   ; qtot 114.524140
 2599         hn    114    ccc     H8   2599 0.28399900   1.008000   ; qtot 114.808139
 2600         os    114    ccc     O1   2600 -0.09200600  16.000000   ; qtot 114.716133
 2601         hn    114    ccc    H17   2601 0.28399900   1.008000   ; qtot 115.000132
; residue  115 ccc rtp ccc q 1.0
 2602         c3    115    ccc     C1   2602 0.17060900  12.010000   ; qtot 115.170741
 2603         hx    115    ccc     H1   2603 0.04213200   1.008000   ; qtot 115.212873
 2604         hx    115    ccc     H2   2604 0.04213200   1.008000   ; qtot 115.255005
 2605         c3    115    ccc     C2   2605 -0.04496700  12.010000   ; qtot 115.210038
 2606         hc    115    ccc     H3   2606 0.02647500   1.008000   ; qtot 115.236513
 2607         hc    115    ccc     H4   2607 0.02647500   1.008000   ; qtot 115.262988
 2608         c3    115    ccc     C3   2608 0.04732600  12.010000   ; qtot 115.310314
 2609         h1    115    ccc     H5   2609 0.07030200   1.008000   ; qtot 115.380616
 2610         h1    115    ccc     H6   2610 0.07030200   1.008000   ; qtot 115.450918
 2611         n4    115    ccc     N1   2611 -0.21077700  14.010000   ; qtot 115.240141
 2612         hn    115    ccc     H7   2612 0.28399900   1.008000   ; qtot 115.524140
 2613         hn    115    ccc     H8   2613 0.28399900   1.008000   ; qtot 115.808139
 2614         os    115    ccc     O1   2614 -0.09200600  16.000000   ; qtot 115.716133
 2615         hn    115    ccc    H17   2615 0.28399900   1.008000   ; qtot 116.000132
; residue  116 ccc rtp ccc q 1.0
 2616         c3    116    ccc     C1   2616 0.17060900  12.010000   ; qtot 116.170741
 2617         hx    116    ccc     H1   2617 0.04213200   1.008000   ; qtot 116.212873
 2618         hx    116    ccc     H2   2618 0.04213200   1.008000   ; qtot 116.255005
 2619         c3    116    ccc     C2   2619 -0.04496700  12.010000   ; qtot 116.210038
 2620         hc    116    ccc     H3   2620 0.02647500   1.008000   ; qtot 116.236513
 2621         hc    116    ccc     H4   2621 0.02647500   1.008000   ; qtot 116.262988
 2622         c3    116    ccc     C3   2622 0.04732600  12.010000   ; qtot 116.310314
 2623         h1    116    ccc     H5   2623 0.07030200   1.008000   ; qtot 116.380616
 2624         h1    116    ccc     H6   2624 0.07030200   1.008000   ; qtot 116.450918
 2625         n4    116    ccc     N1   2625 -0.21077700  14.010000   ; qtot 116.240141
 2626         hn    116    ccc     H7   2626 0.28399900   1.008000   ; qtot 116.524140
 2627         hn    116    ccc     H8   2627 0.28399900   1.008000   ; qtot 116.808139
 2628         os    116    ccc     O1   2628 -0.09200600  16.000000   ; qtot 116.716133
 2629         hn    116    ccc    H17   2629 0.28399900   1.008000   ; qtot 117.000132
; residue  117 ccc rtp ccc q 1.0
 2630         c3    117    ccc     C1   2630 0.17060900  12.010000   ; qtot 117.170741
 2631         hx    117    ccc     H1   2631 0.04213200   1.008000   ; qtot 117.212873
 2632         hx    117    ccc     H2   2632 0.04213200   1.008000   ; qtot 117.255005
 2633         c3    117    ccc     C2   2633 -0.04496700  12.010000   ; qtot 117.210038
 2634         hc    117    ccc     H3   2634 0.02647500   1.008000   ; qtot 117.236513
 2635         hc    117    ccc     H4   2635 0.02647500   1.008000   ; qtot 117.262988
 2636         c3    117    ccc     C3   2636 0.04732600  12.010000   ; qtot 117.310314
 2637         h1    117    ccc     H5   2637 0.07030200   1.008000   ; qtot 117.380616
 2638         h1    117    ccc     H6   2638 0.07030200   1.008000   ; qtot 117.450918
 2639         n4    117    ccc     N1   2639 -0.21077700  14.010000   ; qtot 117.240141
 2640         hn    117    ccc     H7   2640 0.28399900   1.008000   ; qtot 117.524140
 2641         hn    117    ccc     H8   2641 0.28399900   1.008000   ; qtot 117.808139
 2642         os    117    ccc     O1   2642 -0.09200600  16.000000   ; qtot 117.716133
 2643         hn    117    ccc    H17   2643 0.28399900   1.008000   ; qtot 118.000132
; residue  118 ccc rtp ccc q 1.0
 2644         c3    118    ccc     C1   2644 0.17060900  12.010000   ; qtot 118.170741
 2645         hx    118    ccc     H1   2645 0.04213200   1.008000   ; qtot 118.212873
 2646         hx    118    ccc     H2   2646 0.04213200   1.008000   ; qtot 118.255005
 2647         c3    118    ccc     C2   2647 -0.04496700  12.010000   ; qtot 118.210038
 2648         hc    118    ccc     H3   2648 0.02647500   1.008000   ; qtot 118.236513
 2649         hc    118    ccc     H4   2649 0.02647500   1.008000   ; qtot 118.262988
 2650         c3    118    ccc     C3   2650 0.04732600  12.010000   ; qtot 118.310314
 2651         h1    118    ccc     H5   2651 0.07030200   1.008000   ; qtot 118.380616
 2652         h1    118    ccc     H6   2652 0.07030200   1.008000   ; qtot 118.450918
 2653         n4    118    ccc     N1   2653 -0.21077700  14.010000   ; qtot 118.240141
 2654         hn    118    ccc     H7   2654 0.28399900   1.008000   ; qtot 118.524140
 2655         hn    118    ccc     H8   2655 0.28399900   1.008000   ; qtot 118.808139
 2656         os    118    ccc     O1   2656 -0.09200600  16.000000   ; qtot 118.716133
 2657         hn    118    ccc    H17   2657 0.28399900   1.008000   ; qtot 119.000132
; residue  119 ccc rtp ccc q 1.0
 2658         c3    119    ccc     C1   2658 0.17060900  12.010000   ; qtot 119.170741
 2659         hx    119    ccc     H1   2659 0.04213200   1.008000   ; qtot 119.212873
 2660         hx    119    ccc     H2   2660 0.04213200   1.008000   ; qtot 119.255005
 2661         c3    119    ccc     C2   2661 -0.04496700  12.010000   ; qtot 119.210038
 2662         hc    119    ccc     H3   2662 0.02647500   1.008000   ; qtot 119.236513
 2663         hc    119    ccc     H4   2663 0.02647500   1.008000   ; qtot 119.262988
 2664         c3    119    ccc     C3   2664 0.04732600  12.010000   ; qtot 119.310314
 2665         h1    119    ccc     H5   2665 0.07030200   1.008000   ; qtot 119.380616
 2666         h1    119    ccc     H6   2666 0.07030200   1.008000   ; qtot 119.450918
 2667         n4    119    ccc     N1   2667 -0.21077700  14.010000   ; qtot 119.240141
 2668         hn    119    ccc     H7   2668 0.28399900   1.008000   ; qtot 119.524140
 2669         hn    119    ccc     H8   2669 0.28399900   1.008000   ; qtot 119.808139
 2670         os    119    ccc     O1   2670 -0.09200600  16.000000   ; qtot 119.716133
 2671         hn    119    ccc    H17   2671 0.28399900   1.008000   ; qtot 120.000132
; residue  120 ccc rtp ccc q 1.0
 2672         c3    120    ccc     C1   2672 0.17060900  12.010000   ; qtot 120.170741
 2673         hx    120    ccc     H1   2673 0.04213200   1.008000   ; qtot 120.212873
 2674         hx    120    ccc     H2   2674 0.04213200   1.008000   ; qtot 120.255005
 2675         c3    120    ccc     C2   2675 -0.04496700  12.010000   ; qtot 120.210038
 2676         hc    120    ccc     H3   2676 0.02647500   1.008000   ; qtot 120.236513
 2677         hc    120    ccc     H4   2677 0.02647500   1.008000   ; qtot 120.262988
 2678         c3    120    ccc     C3   2678 0.04732600  12.010000   ; qtot 120.310314
 2679         h1    120    ccc     H5   2679 0.07030200   1.008000   ; qtot 120.380616
 2680         h1    120    ccc     H6   2680 0.07030200   1.008000   ; qtot 120.450918
 2681         n4    120    ccc     N1   2681 -0.21077700  14.010000   ; qtot 120.240141
 2682         hn    120    ccc     H7   2682 0.28399900   1.008000   ; qtot 120.524140
 2683         hn    120    ccc     H8   2683 0.28399900   1.008000   ; qtot 120.808139
 2684         os    120    ccc     O1   2684 -0.09200600  16.000000   ; qtot 120.716133
 2685         hn    120    ccc    H17   2685 0.28399900   1.008000   ; qtot 121.000132
; residue  121 ccc rtp ccc q 1.0
 2686         c3    121    ccc     C1   2686 0.17060900  12.010000   ; qtot 121.170741
 2687         hx    121    ccc     H1   2687 0.04213200   1.008000   ; qtot 121.212873
 2688         hx    121    ccc     H2   2688 0.04213200   1.008000   ; qtot 121.255005
 2689         c3    121    ccc     C2   2689 -0.04496700  12.010000   ; qtot 121.210038
 2690         hc    121    ccc     H3   2690 0.02647500   1.008000   ; qtot 121.236513
 2691         hc    121    ccc     H4   2691 0.02647500   1.008000   ; qtot 121.262988
 2692         c3    121    ccc     C3   2692 0.04732600  12.010000   ; qtot 121.310314
 2693         h1    121    ccc     H5   2693 0.07030200   1.008000   ; qtot 121.380616
 2694         h1    121    ccc     H6   2694 0.07030200   1.008000   ; qtot 121.450918
 2695         n4    121    ccc     N1   2695 -0.21077700  14.010000   ; qtot 121.240141
 2696         hn    121    ccc     H7   2696 0.28399900   1.008000   ; qtot 121.524140
 2697         hn    121    ccc     H8   2697 0.28399900   1.008000   ; qtot 121.808139
 2698         os    121    ccc     O1   2698 -0.09200600  16.000000   ; qtot 121.716133
 2699         hn    121    ccc    H17   2699 0.28399900   1.008000   ; qtot 122.000132
; residue  122 ccc rtp ccc q 1.0
 2700         c3    122    ccc     C1   2700 0.17060900  12.010000   ; qtot 122.170741
 2701         hx    122    ccc     H1   2701 0.04213200   1.008000   ; qtot 122.212873
 2702         hx    122    ccc     H2   2702 0.04213200   1.008000   ; qtot 122.255005
 2703         c3    122    ccc     C2   2703 -0.04496700  12.010000   ; qtot 122.210038
 2704         hc    122    ccc     H3   2704 0.02647500   1.008000   ; qtot 122.236513
 2705         hc    122    ccc     H4   2705 0.02647500   1.008000   ; qtot 122.262988
 2706         c3    122    ccc     C3   2706 0.04732600  12.010000   ; qtot 122.310314
 2707         h1    122    ccc     H5   2707 0.07030200   1.008000   ; qtot 122.380616
 2708         h1    122    ccc     H6   2708 0.07030200   1.008000   ; qtot 122.450918
 2709         n4    122    ccc     N1   2709 -0.21077700  14.010000   ; qtot 122.240141
 2710         hn    122    ccc     H7   2710 0.28399900   1.008000   ; qtot 122.524140
 2711         hn    122    ccc     H8   2711 0.28399900   1.008000   ; qtot 122.808139
 2712         os    122    ccc     O1   2712 -0.09200600  16.000000   ; qtot 122.716133
 2713         hn    122    ccc    H17   2713 0.28399900   1.008000   ; qtot 123.000132
; residue  123 ccc rtp ccc q 1.0
 2714         c3    123    ccc     C1   2714 0.17060900  12.010000   ; qtot 123.170741
 2715         hx    123    ccc     H1   2715 0.04213200   1.008000   ; qtot 123.212873
 2716         hx    123    ccc     H2   2716 0.04213200   1.008000   ; qtot 123.255005
 2717         c3    123    ccc     C2   2717 -0.04496700  12.010000   ; qtot 123.210038
 2718         hc    123    ccc     H3   2718 0.02647500   1.008000   ; qtot 123.236513
 2719         hc    123    ccc     H4   2719 0.02647500   1.008000   ; qtot 123.262988
 2720         c3    123    ccc     C3   2720 0.04732600  12.010000   ; qtot 123.310314
 2721         h1    123    ccc     H5   2721 0.07030200   1.008000   ; qtot 123.380616
 2722         h1    123    ccc     H6   2722 0.07030200   1.008000   ; qtot 123.450918
 2723         n4    123    ccc     N1   2723 -0.21077700  14.010000   ; qtot 123.240141
 2724         hn    123    ccc     H7   2724 0.28399900   1.008000   ; qtot 123.524140
 2725         hn    123    ccc     H8   2725 0.28399900   1.008000   ; qtot 123.808139
 2726         os    123    ccc     O1   2726 -0.09200600  16.000000   ; qtot 123.716133
 2727         hn    123    ccc    H17   2727 0.28399900   1.008000   ; qtot 124.000132
; residue  124 ccc rtp ccc q 1.0
 2728         c3    124    ccc     C1   2728 0.17060900  12.010000   ; qtot 124.170741
 2729         hx    124    ccc     H1   2729 0.04213200   1.008000   ; qtot 124.212873
 2730         hx    124    ccc     H2   2730 0.04213200   1.008000   ; qtot 124.255005
 2731         c3    124    ccc     C2   2731 -0.04496700  12.010000   ; qtot 124.210038
 2732         hc    124    ccc     H3   2732 0.02647500   1.008000   ; qtot 124.236513
 2733         hc    124    ccc     H4   2733 0.02647500   1.008000   ; qtot 124.262988
 2734         c3    124    ccc     C3   2734 0.04732600  12.010000   ; qtot 124.310314
 2735         h1    124    ccc     H5   2735 0.07030200   1.008000   ; qtot 124.380616
 2736         h1    124    ccc     H6   2736 0.07030200   1.008000   ; qtot 124.450918
 2737         n4    124    ccc     N1   2737 -0.21077700  14.010000   ; qtot 124.240141
 2738         hn    124    ccc     H7   2738 0.28399900   1.008000   ; qtot 124.524140
 2739         hn    124    ccc     H8   2739 0.28399900   1.008000   ; qtot 124.808139
 2740         os    124    ccc     O1   2740 -0.09200600  16.000000   ; qtot 124.716133
 2741         hn    124    ccc    H17   2741 0.28399900   1.008000   ; qtot 125.000132
; residue  125 ccc rtp ccc q 1.0
 2742         c3    125    ccc     C1   2742 0.17060900  12.010000   ; qtot 125.170741
 2743         hx    125    ccc     H1   2743 0.04213200   1.008000   ; qtot 125.212873
 2744         hx    125    ccc     H2   2744 0.04213200   1.008000   ; qtot 125.255005
 2745         c3    125    ccc     C2   2745 -0.04496700  12.010000   ; qtot 125.210038
 2746         hc    125    ccc     H3   2746 0.02647500   1.008000   ; qtot 125.236513
 2747         hc    125    ccc     H4   2747 0.02647500   1.008000   ; qtot 125.262988
 2748         c3    125    ccc     C3   2748 0.04732600  12.010000   ; qtot 125.310314
 2749         h1    125    ccc     H5   2749 0.07030200   1.008000   ; qtot 125.380616
 2750         h1    125    ccc     H6   2750 0.07030200   1.008000   ; qtot 125.450918
 2751         n4    125    ccc     N1   2751 -0.21077700  14.010000   ; qtot 125.240141
 2752         hn    125    ccc     H7   2752 0.28399900   1.008000   ; qtot 125.524140
 2753         hn    125    ccc     H8   2753 0.28399900   1.008000   ; qtot 125.808139
 2754         os    125    ccc     O1   2754 -0.09200600  16.000000   ; qtot 125.716133
 2755         hn    125    ccc    H17   2755 0.28399900   1.008000   ; qtot 126.000132

[ bonds ]
;    ai     aj funct         c0         c1         c2         c3
      1      2     1   0.14316 258236.480000
      1      5     1   0.14316 258236.480000
      2      8     1   0.15375 251793.120000
      5     11     1   0.15375 251793.120000
      8     14     1   0.15375 251793.120000
     11     17     1   0.15375 251793.120000
     14     20     1   0.15110 237065.440000
     17     21     1   0.15110 237065.440000
     20     28     1   0.15110 237065.440000
     20     31     1   0.15110 237065.440000
     21     22     1   0.15110 237065.440000
     21     25     1   0.15110 237065.440000
     22     34     1   0.15375 251793.120000
     25     37     1   0.15375 251793.120000
     28     40     1   0.15375 251793.120000
     31     43     1   0.15375 251793.120000
     34     55     1   0.15375 251793.120000
     37     52     1   0.15375 251793.120000
     40     49     1   0.15375 251793.120000
     43     46     1   0.15375 251793.120000
     46     88     1   0.14316 258236.480000
     49    118     1   0.14316 258236.480000
     52    148     1   0.14316 258236.480000
     55    178     1   0.14316 258236.480000
     60     61     1   0.15110 237065.440000
     60     64     1   0.15110 237065.440000
     60     67     1   0.15110 237065.440000
     61     73     1   0.15375 251793.120000
     64     76     1   0.15375 251793.120000
     67     70     1   0.15375 251793.120000
     70     79     1   0.15375 251793.120000
     73     85     1   0.15375 251793.120000
     76     82     1   0.15375 251793.120000
     79     88     1   0.14316 258236.480000
     82    208     1   0.14316 258236.480000
     85    238     1   0.14316 258236.480000
     90     91     1   0.15110 237065.440000
     90     94     1   0.15110 237065.440000
     90     97     1   0.15110 237065.440000
     91    103     1   0.15375 251793.120000
     94    106     1   0.15375 251793.120000
     97    100     1   0.15375 251793.120000
    100    109     1   0.15375 251793.120000
    103    115     1   0.15375 251793.120000
    106    112     1   0.15375 251793.120000
    109    118     1   0.14316 258236.480000
    112    268     1   0.14316 258236.480000
    115    298     1   0.14316 258236.480000
    120    121     1   0.15110 237065.440000
    120    124     1   0.15110 237065.440000
    120    127     1   0.15110 237065.440000
    121    133     1   0.15375 251793.120000
    124    136     1   0.15375 251793.120000
    127    130     1   0.15375 251793.120000
    130    139     1   0.15375 251793.120000
    133    145     1   0.15375 251793.120000
    136    142     1   0.15375 251793.120000
    139    148     1   0.14316 258236.480000
    142    328     1   0.14316 258236.480000
    145    358     1   0.14316 258236.480000
    150    151     1   0.15110 237065.440000
    150    154     1   0.15110 237065.440000
    150    157     1   0.15110 237065.440000
    151    163     1   0.15375 251793.120000
    154    166     1   0.15375 251793.120000
    157    160     1   0.15375 251793.120000
    160    169     1   0.15375 251793.120000
    163    175     1   0.15375 251793.120000
    166    172     1   0.15375 251793.120000
    169    178     1   0.14316 258236.480000
    172    388     1   0.14316 258236.480000
    175    418     1   0.14316 258236.480000
    180    181     1   0.15110 237065.440000
    180    184     1   0.15110 237065.440000
    180    187     1   0.15110 237065.440000
    181    193     1   0.15375 251793.120000
    184    196     1   0.15375 251793.120000
    187    190     1   0.15375 251793.120000
    190    199     1   0.15375 251793.120000
    193    205     1   0.15375 251793.120000
    196    202     1   0.15375 251793.120000
    199    208     1   0.14316 258236.480000
    202    448     1   0.14316 258236.480000
    205    478     1   0.14316 258236.480000
    210    211     1   0.15110 237065.440000
    210    214     1   0.15110 237065.440000
    210    217     1   0.15110 237065.440000
    211    223     1   0.15375 251793.120000
    214    226     1   0.15375 251793.120000
    217    220     1   0.15375 251793.120000
    220    229     1   0.15375 251793.120000
    223    235     1   0.15375 251793.120000
    226    232     1   0.15375 251793.120000
    229    238     1   0.14316 258236.480000
    232    508     1   0.14316 258236.480000
    235    538     1   0.14316 258236.480000
    240    241     1   0.15110 237065.440000
    240    244     1   0.15110 237065.440000
    240    247     1   0.15110 237065.440000
    241    253     1   0.15375 251793.120000
    244    256     1   0.15375 251793.120000
    247    250     1   0.15375 251793.120000
    250    259     1   0.15375 251793.120000
    253    265     1   0.15375 251793.120000
    256    262     1   0.15375 251793.120000
    259    268     1   0.14316 258236.480000
    262    568     1   0.14316 258236.480000
    265    598     1   0.14316 258236.480000
    270    271     1   0.15110 237065.440000
    270    274     1   0.15110 237065.440000
    270    277     1   0.15110 237065.440000
    271    283     1   0.15375 251793.120000
    274    286     1   0.15375 251793.120000
    277    280     1   0.15375 251793.120000
    280    289     1   0.15375 251793.120000
    283    295     1   0.15375 251793.120000
    286    292     1   0.15375 251793.120000
    289    298     1   0.14316 258236.480000
    292    628     1   0.14316 258236.480000
    295    658     1   0.14316 258236.480000
    300    301     1   0.15110 237065.440000
    300    304     1   0.15110 237065.440000
    300    307     1   0.15110 237065.440000
    301    313     1   0.15375 251793.120000
    304    316     1   0.15375 251793.120000
    307    310     1   0.15375 251793.120000
    310    319     1   0.15375 251793.120000
    313    325     1   0.15375 251793.120000
    316    322     1   0.15375 251793.120000
    319    328     1   0.14316 258236.480000
    322    688     1   0.14316 258236.480000
    325    718     1   0.14316 258236.480000
    330    331     1   0.15110 237065.440000
    330    334     1   0.15110 237065.440000
    330    337     1   0.15110 237065.440000
    331    343     1   0.15375 251793.120000
    334    346     1   0.15375 251793.120000
    337    340     1   0.15375 251793.120000
    340    349     1   0.15375 251793.120000
    343    355     1   0.15375 251793.120000
    346    352     1   0.15375 251793.120000
    349    358     1   0.14316 258236.480000
    352    748     1   0.14316 258236.480000
    355    778     1   0.14316 258236.480000
    360    361     1   0.15110 237065.440000
    360    364     1   0.15110 237065.440000
    360    367     1   0.15110 237065.440000
    361    373     1   0.15375 251793.120000
    364    376     1   0.15375 251793.120000
    367    370     1   0.15375 251793.120000
    370    379     1   0.15375 251793.120000
    373    385     1   0.15375 251793.120000
    376    382     1   0.15375 251793.120000
    379    388     1   0.14316 258236.480000
    382    808     1   0.14316 258236.480000
    385    838     1   0.14316 258236.480000
    390    391     1   0.15110 237065.440000
    390    394     1   0.15110 237065.440000
    390    397     1   0.15110 237065.440000
    391    403     1   0.15375 251793.120000
    394    406     1   0.15375 251793.120000
    397    400     1   0.15375 251793.120000
    400    409     1   0.15375 251793.120000
    403    415     1   0.15375 251793.120000
    406    412     1   0.15375 251793.120000
    409    418     1   0.14316 258236.480000
    412    868     1   0.14316 258236.480000
    415    898     1   0.14316 258236.480000
    420    421     1   0.15110 237065.440000
    420    424     1   0.15110 237065.440000
    420    427     1   0.15110 237065.440000
    421    433     1   0.15375 251793.120000
    424    436     1   0.15375 251793.120000
    427    430     1   0.15375 251793.120000
    430    439     1   0.15375 251793.120000
    433    445     1   0.15375 251793.120000
    436    442     1   0.15375 251793.120000
    439    448     1   0.14316 258236.480000
    442    928     1   0.14316 258236.480000
    445    958     1   0.14316 258236.480000
    450    451     1   0.15110 237065.440000
    450    454     1   0.15110 237065.440000
    450    457     1   0.15110 237065.440000
    451    463     1   0.15375 251793.120000
    454    466     1   0.15375 251793.120000
    457    460     1   0.15375 251793.120000
    460    469     1   0.15375 251793.120000
    463    475     1   0.15375 251793.120000
    466    472     1   0.15375 251793.120000
    469    478     1   0.14316 258236.480000
    472    988     1   0.14316 258236.480000
    475   1018     1   0.14316 258236.480000
    480    481     1   0.15110 237065.440000
    480    484     1   0.15110 237065.440000
    480    487     1   0.15110 237065.440000
    481    493     1   0.15375 251793.120000
    484    496     1   0.15375 251793.120000
    487    490     1   0.15375 251793.120000
    490    499     1   0.15375 251793.120000
    493    505     1   0.15375 251793.120000
    496    502     1   0.15375 251793.120000
    499    508     1   0.14316 258236.480000
    502   1048     1   0.14316 258236.480000
    505   1078     1   0.14316 258236.480000
    510    511     1   0.15110 237065.440000
    510    514     1   0.15110 237065.440000
    510    517     1   0.15110 237065.440000
    511    523     1   0.15375 251793.120000
    514    526     1   0.15375 251793.120000
    517    520     1   0.15375 251793.120000
    520    529     1   0.15375 251793.120000
    523    535     1   0.15375 251793.120000
    526    532     1   0.15375 251793.120000
    529    538     1   0.14316 258236.480000
    532   1108     1   0.14316 258236.480000
    535   1138     1   0.14316 258236.480000
    540    541     1   0.15110 237065.440000
    540    544     1   0.15110 237065.440000
    540    547     1   0.15110 237065.440000
    541    553     1   0.15375 251793.120000
    544    556     1   0.15375 251793.120000
    547    550     1   0.15375 251793.120000
    550    559     1   0.15375 251793.120000
    553    565     1   0.15375 251793.120000
    556    562     1   0.15375 251793.120000
    559    568     1   0.14316 258236.480000
    562   1168     1   0.14316 258236.480000
    565   1198     1   0.14316 258236.480000
    570    571     1   0.15110 237065.440000
    570    574     1   0.15110 237065.440000
    570    577     1   0.15110 237065.440000
    571    583     1   0.15375 251793.120000
    574    586     1   0.15375 251793.120000
    577    580     1   0.15375 251793.120000
    580    589     1   0.15375 251793.120000
    583    595     1   0.15375 251793.120000
    586    592     1   0.15375 251793.120000
    589    598     1   0.14316 258236.480000
    592   1228     1   0.14316 258236.480000
    595   1258     1   0.14316 258236.480000
    600    601     1   0.15110 237065.440000
    600    604     1   0.15110 237065.440000
    600    607     1   0.15110 237065.440000
    601    613     1   0.15375 251793.120000
    604    616     1   0.15375 251793.120000
    607    610     1   0.15375 251793.120000
    610    619     1   0.15375 251793.120000
    613    625     1   0.15375 251793.120000
    616    622     1   0.15375 251793.120000
    619    628     1   0.14316 258236.480000
    622   1288     1   0.14316 258236.480000
    625   1318     1   0.14316 258236.480000
    630    631     1   0.15110 237065.440000
    630    634     1   0.15110 237065.440000
    630    637     1   0.15110 237065.440000
    631    643     1   0.15375 251793.120000
    634    646     1   0.15375 251793.120000
    637    640     1   0.15375 251793.120000
    640    649     1   0.15375 251793.120000
    643    655     1   0.15375 251793.120000
    646    652     1   0.15375 251793.120000
    649    658     1   0.14316 258236.480000
    652   1348     1   0.14316 258236.480000
    655   1378     1   0.14316 258236.480000
    660    661     1   0.15110 237065.440000
    660    664     1   0.15110 237065.440000
    660    667     1   0.15110 237065.440000
    661    673     1   0.15375 251793.120000
    664    676     1   0.15375 251793.120000
    667    670     1   0.15375 251793.120000
    670    679     1   0.15375 251793.120000
    673    685     1   0.15375 251793.120000
    676    682     1   0.15375 251793.120000
    679    688     1   0.14316 258236.480000
    682   1408     1   0.14316 258236.480000
    685   1438     1   0.14316 258236.480000
    690    691     1   0.15110 237065.440000
    690    694     1   0.15110 237065.440000
    690    697     1   0.15110 237065.440000
    691    703     1   0.15375 251793.120000
    694    706     1   0.15375 251793.120000
    697    700     1   0.15375 251793.120000
    700    709     1   0.15375 251793.120000
    703    715     1   0.15375 251793.120000
    706    712     1   0.15375 251793.120000
    709    718     1   0.14316 258236.480000
    712   1468     1   0.14316 258236.480000
    715   1498     1   0.14316 258236.480000
    720    721     1   0.15110 237065.440000
    720    724     1   0.15110 237065.440000
    720    727     1   0.15110 237065.440000
    721    733     1   0.15375 251793.120000
    724    736     1   0.15375 251793.120000
    727    730     1   0.15375 251793.120000
    730    739     1   0.15375 251793.120000
    733    745     1   0.15375 251793.120000
    736    742     1   0.15375 251793.120000
    739    748     1   0.14316 258236.480000
    742   1528     1   0.14316 258236.480000
    745   1558     1   0.14316 258236.480000
    750    751     1   0.15110 237065.440000
    750    754     1   0.15110 237065.440000
    750    757     1   0.15110 237065.440000
    751    763     1   0.15375 251793.120000
    754    766     1   0.15375 251793.120000
    757    760     1   0.15375 251793.120000
    760    769     1   0.15375 251793.120000
    763    775     1   0.15375 251793.120000
    766    772     1   0.15375 251793.120000
    769    778     1   0.14316 258236.480000
    772   1588     1   0.14316 258236.480000
    775   1618     1   0.14316 258236.480000
    780    781     1   0.15110 237065.440000
    780    784     1   0.15110 237065.440000
    780    787     1   0.15110 237065.440000
    781    793     1   0.15375 251793.120000
    784    796     1   0.15375 251793.120000
    787    790     1   0.15375 251793.120000
    790    799     1   0.15375 251793.120000
    793    805     1   0.15375 251793.120000
    796    802     1   0.15375 251793.120000
    799    808     1   0.14316 258236.480000
    802   1648     1   0.14316 258236.480000
    805   1678     1   0.14316 258236.480000
    810    811     1   0.15110 237065.440000
    810    814     1   0.15110 237065.440000
    810    817     1   0.15110 237065.440000
    811    823     1   0.15375 251793.120000
    814    826     1   0.15375 251793.120000
    817    820     1   0.15375 251793.120000
    820    829     1   0.15375 251793.120000
    823    835     1   0.15375 251793.120000
    826    832     1   0.15375 251793.120000
    829    838     1   0.14316 258236.480000
    832   1708     1   0.14316 258236.480000
    835   1738     1   0.14316 258236.480000
    840    841     1   0.15110 237065.440000
    840    844     1   0.15110 237065.440000
    840    847     1   0.15110 237065.440000
    841    853     1   0.15375 251793.120000
    844    856     1   0.15375 251793.120000
    847    850     1   0.15375 251793.120000
    850    859     1   0.15375 251793.120000
    853    865     1   0.15375 251793.120000
    856    862     1   0.15375 251793.120000
    859    868     1   0.14316 258236.480000
    862   1768     1   0.14316 258236.480000
    865   1798     1   0.14316 258236.480000
    870    871     1   0.15110 237065.440000
    870    874     1   0.15110 237065.440000
    870    877     1   0.15110 237065.440000
    871    883     1   0.15375 251793.120000
    874    886     1   0.15375 251793.120000
    877    880     1   0.15375 251793.120000
    880    889     1   0.15375 251793.120000
    883    895     1   0.15375 251793.120000
    886    892     1   0.15375 251793.120000
    889    898     1   0.14316 258236.480000
    892   1828     1   0.14316 258236.480000
    895   1858     1   0.14316 258236.480000
    900    901     1   0.15110 237065.440000
    900    904     1   0.15110 237065.440000
    900    907     1   0.15110 237065.440000
    901    913     1   0.15375 251793.120000
    904    916     1   0.15375 251793.120000
    907    910     1   0.15375 251793.120000
    910    919     1   0.15375 251793.120000
    913    925     1   0.15375 251793.120000
    916    922     1   0.15375 251793.120000
    919    928     1   0.14316 258236.480000
    922   1872     1   0.14316 258236.480000
    925   1886     1   0.14316 258236.480000
    930    931     1   0.15110 237065.440000
    930    934     1   0.15110 237065.440000
    930    937     1   0.15110 237065.440000
    931    943     1   0.15375 251793.120000
    934    946     1   0.15375 251793.120000
    937    940     1   0.15375 251793.120000
    940    949     1   0.15375 251793.120000
    943    955     1   0.15375 251793.120000
    946    952     1   0.15375 251793.120000
    949    958     1   0.14316 258236.480000
    952   1900     1   0.14316 258236.480000
    955   1914     1   0.14316 258236.480000
    960    961     1   0.15110 237065.440000
    960    964     1   0.15110 237065.440000
    960    967     1   0.15110 237065.440000
    961    973     1   0.15375 251793.120000
    964    976     1   0.15375 251793.120000
    967    970     1   0.15375 251793.120000
    970    979     1   0.15375 251793.120000
    973    985     1   0.15375 251793.120000
    976    982     1   0.15375 251793.120000
    979    988     1   0.14316 258236.480000
    982   1928     1   0.14316 258236.480000
    985   1942     1   0.14316 258236.480000
    990    991     1   0.15110 237065.440000
    990    994     1   0.15110 237065.440000
    990    997     1   0.15110 237065.440000
    991   1003     1   0.15375 251793.120000
    994   1006     1   0.15375 251793.120000
    997   1000     1   0.15375 251793.120000
   1000   1009     1   0.15375 251793.120000
   1003   1015     1   0.15375 251793.120000
   1006   1012     1   0.15375 251793.120000
   1009   1018     1   0.14316 258236.480000
   1012   1956     1   0.14316 258236.480000
   1015   1970     1   0.14316 258236.480000
   1020   1021     1   0.15110 237065.440000
   1020   1024     1   0.15110 237065.440000
   1020   1027     1   0.15110 237065.440000
   1021   1033     1   0.15375 251793.120000
   1024   1036     1   0.15375 251793.120000
   1027   1030     1   0.15375 251793.120000
   1030   1039     1   0.15375 251793.120000
   1033   1045     1   0.15375 251793.120000
   1036   1042     1   0.15375 251793.120000
   1039   1048     1   0.14316 258236.480000
   1042   1984     1   0.14316 258236.480000
   1045   1998     1   0.14316 258236.480000
   1050   1051     1   0.15110 237065.440000
   1050   1054     1   0.15110 237065.440000
   1050   1057     1   0.15110 237065.440000
   1051   1063     1   0.15375 251793.120000
   1054   1066     1   0.15375 251793.120000
   1057   1060     1   0.15375 251793.120000
   1060   1069     1   0.15375 251793.120000
   1063   1075     1   0.15375 251793.120000
   1066   1072     1   0.15375 251793.120000
   1069   1078     1   0.14316 258236.480000
   1072   2012     1   0.14316 258236.480000
   1075   2026     1   0.14316 258236.480000
   1080   1081     1   0.15110 237065.440000
   1080   1084     1   0.15110 237065.440000
   1080   1087     1   0.15110 237065.440000
   1081   1093     1   0.15375 251793.120000
   1084   1096     1   0.15375 251793.120000
   1087   1090     1   0.15375 251793.120000
   1090   1099     1   0.15375 251793.120000
   1093   1105     1   0.15375 251793.120000
   1096   1102     1   0.15375 251793.120000
   1099   1108     1   0.14316 258236.480000
   1102   2040     1   0.14316 258236.480000
   1105   2054     1   0.14316 258236.480000
   1110   1111     1   0.15110 237065.440000
   1110   1114     1   0.15110 237065.440000
   1110   1117     1   0.15110 237065.440000
   1111   1123     1   0.15375 251793.120000
   1114   1126     1   0.15375 251793.120000
   1117   1120     1   0.15375 251793.120000
   1120   1129     1   0.15375 251793.120000
   1123   1135     1   0.15375 251793.120000
   1126   1132     1   0.15375 251793.120000
   1129   1138     1   0.14316 258236.480000
   1132   2068     1   0.14316 258236.480000
   1135   2082     1   0.14316 258236.480000
   1140   1141     1   0.15110 237065.440000
   1140   1144     1   0.15110 237065.440000
   1140   1147     1   0.15110 237065.440000
   1141   1153     1   0.15375 251793.120000
   1144   1156     1   0.15375 251793.120000
   1147   1150     1   0.15375 251793.120000
   1150   1159     1   0.15375 251793.120000
   1153   1165     1   0.15375 251793.120000
   1156   1162     1   0.15375 251793.120000
   1159   1168     1   0.14316 258236.480000
   1162   2096     1   0.14316 258236.480000
   1165   2110     1   0.14316 258236.480000
   1170   1171     1   0.15110 237065.440000
   1170   1174     1   0.15110 237065.440000
   1170   1177     1   0.15110 237065.440000
   1171   1183     1   0.15375 251793.120000
   1174   1186     1   0.15375 251793.120000
   1177   1180     1   0.15375 251793.120000
   1180   1189     1   0.15375 251793.120000
   1183   1195     1   0.15375 251793.120000
   1186   1192     1   0.15375 251793.120000
   1189   1198     1   0.14316 258236.480000
   1192   2124     1   0.14316 258236.480000
   1195   2138     1   0.14316 258236.480000
   1200   1201     1   0.15110 237065.440000
   1200   1204     1   0.15110 237065.440000
   1200   1207     1   0.15110 237065.440000
   1201   1213     1   0.15375 251793.120000
   1204   1216     1   0.15375 251793.120000
   1207   1210     1   0.15375 251793.120000
   1210   1219     1   0.15375 251793.120000
   1213   1225     1   0.15375 251793.120000
   1216   1222     1   0.15375 251793.120000
   1219   1228     1   0.14316 258236.480000
   1222   2152     1   0.14316 258236.480000
   1225   2166     1   0.14316 258236.480000
   1230   1231     1   0.15110 237065.440000
   1230   1234     1   0.15110 237065.440000
   1230   1237     1   0.15110 237065.440000
   1231   1243     1   0.15375 251793.120000
   1234   1246     1   0.15375 251793.120000
   1237   1240     1   0.15375 251793.120000
   1240   1249     1   0.15375 251793.120000
   1243   1255     1   0.15375 251793.120000
   1246   1252     1   0.15375 251793.120000
   1249   1258     1   0.14316 258236.480000
   1252   2180     1   0.14316 258236.480000
   1255   2194     1   0.14316 258236.480000
   1260   1261     1   0.15110 237065.440000
   1260   1264     1   0.15110 237065.440000
   1260   1267     1   0.15110 237065.440000
   1261   1273     1   0.15375 251793.120000
   1264   1276     1   0.15375 251793.120000
   1267   1270     1   0.15375 251793.120000
   1270   1279     1   0.15375 251793.120000
   1273   1285     1   0.15375 251793.120000
   1276   1282     1   0.15375 251793.120000
   1279   1288     1   0.14316 258236.480000
   1282   2208     1   0.14316 258236.480000
   1285   2222     1   0.14316 258236.480000
   1290   1291     1   0.15110 237065.440000
   1290   1294     1   0.15110 237065.440000
   1290   1297     1   0.15110 237065.440000
   1291   1303     1   0.15375 251793.120000
   1294   1306     1   0.15375 251793.120000
   1297   1300     1   0.15375 251793.120000
   1300   1309     1   0.15375 251793.120000
   1303   1315     1   0.15375 251793.120000
   1306   1312     1   0.15375 251793.120000
   1309   1318     1   0.14316 258236.480000
   1312   2236     1   0.14316 258236.480000
   1315   2250     1   0.14316 258236.480000
   1320   1321     1   0.15110 237065.440000
   1320   1324     1   0.15110 237065.440000
   1320   1327     1   0.15110 237065.440000
   1321   1333     1   0.15375 251793.120000
   1324   1336     1   0.15375 251793.120000
   1327   1330     1   0.15375 251793.120000
   1330   1339     1   0.15375 251793.120000
   1333   1345     1   0.15375 251793.120000
   1336   1342     1   0.15375 251793.120000
   1339   1348     1   0.14316 258236.480000
   1342   2264     1   0.14316 258236.480000
   1345   2278     1   0.14316 258236.480000
   1350   1351     1   0.15110 237065.440000
   1350   1354     1   0.15110 237065.440000
   1350   1357     1   0.15110 237065.440000
   1351   1363     1   0.15375 251793.120000
   1354   1366     1   0.15375 251793.120000
   1357   1360     1   0.15375 251793.120000
   1360   1369     1   0.15375 251793.120000
   1363   1375     1   0.15375 251793.120000
   1366   1372     1   0.15375 251793.120000
   1369   1378     1   0.14316 258236.480000
   1372   2292     1   0.14316 258236.480000
   1375   2306     1   0.14316 258236.480000
   1380   1381     1   0.15110 237065.440000
   1380   1384     1   0.15110 237065.440000
   1380   1387     1   0.15110 237065.440000
   1381   1393     1   0.15375 251793.120000
   1384   1396     1   0.15375 251793.120000
   1387   1390     1   0.15375 251793.120000
   1390   1399     1   0.15375 251793.120000
   1393   1405     1   0.15375 251793.120000
   1396   1402     1   0.15375 251793.120000
   1399   1408     1   0.14316 258236.480000
   1402   2320     1   0.14316 258236.480000
   1405   2334     1   0.14316 258236.480000
   1410   1411     1   0.15110 237065.440000
   1410   1414     1   0.15110 237065.440000
   1410   1417     1   0.15110 237065.440000
   1411   1423     1   0.15375 251793.120000
   1414   1426     1   0.15375 251793.120000
   1417   1420     1   0.15375 251793.120000
   1420   1429     1   0.15375 251793.120000
   1423   1435     1   0.15375 251793.120000
   1426   1432     1   0.15375 251793.120000
   1429   1438     1   0.14316 258236.480000
   1432   2348     1   0.14316 258236.480000
   1435   2362     1   0.14316 258236.480000
   1440   1441     1   0.15110 237065.440000
   1440   1444     1   0.15110 237065.440000
   1440   1447     1   0.15110 237065.440000
   1441   1453     1   0.15375 251793.120000
   1444   1456     1   0.15375 251793.120000
   1447   1450     1   0.15375 251793.120000
   1450   1459     1   0.15375 251793.120000
   1453   1465     1   0.15375 251793.120000
   1456   1462     1   0.15375 251793.120000
   1459   1468     1   0.14316 258236.480000
   1462   2376     1   0.14316 258236.480000
   1465   2390     1   0.14316 258236.480000
   1470   1471     1   0.15110 237065.440000
   1470   1474     1   0.15110 237065.440000
   1470   1477     1   0.15110 237065.440000
   1471   1483     1   0.15375 251793.120000
   1474   1486     1   0.15375 251793.120000
   1477   1480     1   0.15375 251793.120000
   1480   1489     1   0.15375 251793.120000
   1483   1495     1   0.15375 251793.120000
   1486   1492     1   0.15375 251793.120000
   1489   1498     1   0.14316 258236.480000
   1492   2404     1   0.14316 258236.480000
   1495   2418     1   0.14316 258236.480000
   1500   1501     1   0.15110 237065.440000
   1500   1504     1   0.15110 237065.440000
   1500   1507     1   0.15110 237065.440000
   1501   1513     1   0.15375 251793.120000
   1504   1516     1   0.15375 251793.120000
   1507   1510     1   0.15375 251793.120000
   1510   1519     1   0.15375 251793.120000
   1513   1525     1   0.15375 251793.120000
   1516   1522     1   0.15375 251793.120000
   1519   1528     1   0.14316 258236.480000
   1522   2432     1   0.14316 258236.480000
   1525   2446     1   0.14316 258236.480000
   1530   1531     1   0.15110 237065.440000
   1530   1534     1   0.15110 237065.440000
   1530   1537     1   0.15110 237065.440000
   1531   1543     1   0.15375 251793.120000
   1534   1546     1   0.15375 251793.120000
   1537   1540     1   0.15375 251793.120000
   1540   1549     1   0.15375 251793.120000
   1543   1555     1   0.15375 251793.120000
   1546   1552     1   0.15375 251793.120000
   1549   1558     1   0.14316 258236.480000
   1552   2460     1   0.14316 258236.480000
   1555   2474     1   0.14316 258236.480000
   1560   1561     1   0.15110 237065.440000
   1560   1564     1   0.15110 237065.440000
   1560   1567     1   0.15110 237065.440000
   1561   1573     1   0.15375 251793.120000
   1564   1576     1   0.15375 251793.120000
   1567   1570     1   0.15375 251793.120000
   1570   1579     1   0.15375 251793.120000
   1573   1585     1   0.15375 251793.120000
   1576   1582     1   0.15375 251793.120000
   1579   1588     1   0.14316 258236.480000
   1582   2488     1   0.14316 258236.480000
   1585   2502     1   0.14316 258236.480000
   1590   1591     1   0.15110 237065.440000
   1590   1594     1   0.15110 237065.440000
   1590   1597     1   0.15110 237065.440000
   1591   1603     1   0.15375 251793.120000
   1594   1606     1   0.15375 251793.120000
   1597   1600     1   0.15375 251793.120000
   1600   1609     1   0.15375 251793.120000
   1603   1615     1   0.15375 251793.120000
   1606   1612     1   0.15375 251793.120000
   1609   1618     1   0.14316 258236.480000
   1612   2516     1   0.14316 258236.480000
   1615   2530     1   0.14316 258236.480000
   1620   1621     1   0.15110 237065.440000
   1620   1624     1   0.15110 237065.440000
   1620   1627     1   0.15110 237065.440000
   1621   1633     1   0.15375 251793.120000
   1624   1636     1   0.15375 251793.120000
   1627   1630     1   0.15375 251793.120000
   1630   1639     1   0.15375 251793.120000
   1633   1645     1   0.15375 251793.120000
   1636   1642     1   0.15375 251793.120000
   1639   1648     1   0.14316 258236.480000
   1642   2544     1   0.14316 258236.480000
   1645   2558     1   0.14316 258236.480000
   1650   1651     1   0.15110 237065.440000
   1650   1654     1   0.15110 237065.440000
   1650   1657     1   0.15110 237065.440000
   1651   1663     1   0.15375 251793.120000
   1654   1666     1   0.15375 251793.120000
   1657   1660     1   0.15375 251793.120000
   1660   1669     1   0.15375 251793.120000
   1663   1675     1   0.15375 251793.120000
   1666   1672     1   0.15375 251793.120000
   1669   1678     1   0.14316 258236.480000
   1672   2572     1   0.14316 258236.480000
   1675   2586     1   0.14316 258236.480000
   1680   1681     1   0.15110 237065.440000
   1680   1684     1   0.15110 237065.440000
   1680   1687     1   0.15110 237065.440000
   1681   1693     1   0.15375 251793.120000
   1684   1696     1   0.15375 251793.120000
   1687   1690     1   0.15375 251793.120000
   1690   1699     1   0.15375 251793.120000
   1693   1705     1   0.15375 251793.120000
   1696   1702     1   0.15375 251793.120000
   1699   1708     1   0.14316 258236.480000
   1702   2600     1   0.14316 258236.480000
   1705   2614     1   0.14316 258236.480000
   1710   1711     1   0.15110 237065.440000
   1710   1714     1   0.15110 237065.440000
   1710   1717     1   0.15110 237065.440000
   1711   1723     1   0.15375 251793.120000
   1714   1726     1   0.15375 251793.120000
   1717   1720     1   0.15375 251793.120000
   1720   1729     1   0.15375 251793.120000
   1723   1735     1   0.15375 251793.120000
   1726   1732     1   0.15375 251793.120000
   1729   1738     1   0.14316 258236.480000
   1732   2628     1   0.14316 258236.480000
   1735   2642     1   0.14316 258236.480000
   1740   1741     1   0.15110 237065.440000
   1740   1744     1   0.15110 237065.440000
   1740   1747     1   0.15110 237065.440000
   1741   1753     1   0.15375 251793.120000
   1744   1756     1   0.15375 251793.120000
   1747   1750     1   0.15375 251793.120000
   1750   1759     1   0.15375 251793.120000
   1753   1765     1   0.15375 251793.120000
   1756   1762     1   0.15375 251793.120000
   1759   1768     1   0.14316 258236.480000
   1762   2656     1   0.14316 258236.480000
   1765   2670     1   0.14316 258236.480000
   1770   1771     1   0.15110 237065.440000
   1770   1774     1   0.15110 237065.440000
   1770   1777     1   0.15110 237065.440000
   1771   1783     1   0.15375 251793.120000
   1774   1786     1   0.15375 251793.120000
   1777   1780     1   0.15375 251793.120000
   1780   1789     1   0.15375 251793.120000
   1783   1795     1   0.15375 251793.120000
   1786   1792     1   0.15375 251793.120000
   1789   1798     1   0.14316 258236.480000
   1792   2684     1   0.14316 258236.480000
   1795   2698     1   0.14316 258236.480000
   1800   1801     1   0.15110 237065.440000
   1800   1804     1   0.15110 237065.440000
   1800   1807     1   0.15110 237065.440000
   1801   1813     1   0.15375 251793.120000
   1804   1816     1   0.15375 251793.120000
   1807   1810     1   0.15375 251793.120000
   1810   1819     1   0.15375 251793.120000
   1813   1825     1   0.15375 251793.120000
   1816   1822     1   0.15375 251793.120000
   1819   1828     1   0.14316 258236.480000
   1822   2712     1   0.14316 258236.480000
   1825   2726     1   0.14316 258236.480000
   1830   1831     1   0.15110 237065.440000
   1830   1834     1   0.15110 237065.440000
   1830   1837     1   0.15110 237065.440000
   1831   1843     1   0.15375 251793.120000
   1834   1846     1   0.15375 251793.120000
   1837   1840     1   0.15375 251793.120000
   1840   1849     1   0.15375 251793.120000
   1843   1855     1   0.15375 251793.120000
   1846   1852     1   0.15375 251793.120000
   1849   1858     1   0.14316 258236.480000
   1852   2740     1   0.14316 258236.480000
   1855   2754     1   0.14316 258236.480000
   1860   1863     1   0.15375 251793.120000
   1860   1869     1   0.15110 237065.440000
   1863   1866     1   0.15375 251793.120000
   1866   1872     1   0.14316 258236.480000
   1874   1877     1   0.15375 251793.120000
   1874   1883     1   0.15110 237065.440000
   1877   1880     1   0.15375 251793.120000
   1880   1886     1   0.14316 258236.480000
   1888   1891     1   0.15375 251793.120000
   1888   1897     1   0.15110 237065.440000
   1891   1894     1   0.15375 251793.120000
   1894   1900     1   0.14316 258236.480000
   1902   1905     1   0.15375 251793.120000
   1902   1911     1   0.15110 237065.440000
   1905   1908     1   0.15375 251793.120000
   1908   1914     1   0.14316 258236.480000
   1916   1919     1   0.15375 251793.120000
   1916   1925     1   0.15110 237065.440000
   1919   1922     1   0.15375 251793.120000
   1922   1928     1   0.14316 258236.480000
   1930   1933     1   0.15375 251793.120000
   1930   1939     1   0.15110 237065.440000
   1933   1936     1   0.15375 251793.120000
   1936   1942     1   0.14316 258236.480000
   1944   1947     1   0.15375 251793.120000
   1944   1953     1   0.15110 237065.440000
   1947   1950     1   0.15375 251793.120000
   1950   1956     1   0.14316 258236.480000
   1958   1961     1   0.15375 251793.120000
   1958   1967     1   0.15110 237065.440000
   1961   1964     1   0.15375 251793.120000
   1964   1970     1   0.14316 258236.480000
   1972   1975     1   0.15375 251793.120000
   1972   1981     1   0.15110 237065.440000
   1975   1978     1   0.15375 251793.120000
   1978   1984     1   0.14316 258236.480000
   1986   1989     1   0.15375 251793.120000
   1986   1995     1   0.15110 237065.440000
   1989   1992     1   0.15375 251793.120000
   1992   1998     1   0.14316 258236.480000
   2000   2003     1   0.15375 251793.120000
   2000   2009     1   0.15110 237065.440000
   2003   2006     1   0.15375 251793.120000
   2006   2012     1   0.14316 258236.480000
   2014   2017     1   0.15375 251793.120000
   2014   2023     1   0.15110 237065.440000
   2017   2020     1   0.15375 251793.120000
   2020   2026     1   0.14316 258236.480000
   2028   2031     1   0.15375 251793.120000
   2028   2037     1   0.15110 237065.440000
   2031   2034     1   0.15375 251793.120000
   2034   2040     1   0.14316 258236.480000
   2042   2045     1   0.15375 251793.120000
   2042   2051     1   0.15110 237065.440000
   2045   2048     1   0.15375 251793.120000
   2048   2054     1   0.14316 258236.480000
   2056   2059     1   0.15375 251793.120000
   2056   2065     1   0.15110 237065.440000
   2059   2062     1   0.15375 251793.120000
   2062   2068     1   0.14316 258236.480000
   2070   2073     1   0.15375 251793.120000
   2070   2079     1   0.15110 237065.440000
   2073   2076     1   0.15375 251793.120000
   2076   2082     1   0.14316 258236.480000
   2084   2087     1   0.15375 251793.120000
   2084   2093     1   0.15110 237065.440000
   2087   2090     1   0.15375 251793.120000
   2090   2096     1   0.14316 258236.480000
   2098   2101     1   0.15375 251793.120000
   2098   2107     1   0.15110 237065.440000
   2101   2104     1   0.15375 251793.120000
   2104   2110     1   0.14316 258236.480000
   2112   2115     1   0.15375 251793.120000
   2112   2121     1   0.15110 237065.440000
   2115   2118     1   0.15375 251793.120000
   2118   2124     1   0.14316 258236.480000
   2126   2129     1   0.15375 251793.120000
   2126   2135     1   0.15110 237065.440000
   2129   2132     1   0.15375 251793.120000
   2132   2138     1   0.14316 258236.480000
   2140   2143     1   0.15375 251793.120000
   2140   2149     1   0.15110 237065.440000
   2143   2146     1   0.15375 251793.120000
   2146   2152     1   0.14316 258236.480000
   2154   2157     1   0.15375 251793.120000
   2154   2163     1   0.15110 237065.440000
   2157   2160     1   0.15375 251793.120000
   2160   2166     1   0.14316 258236.480000
   2168   2171     1   0.15375 251793.120000
   2168   2177     1   0.15110 237065.440000
   2171   2174     1   0.15375 251793.120000
   2174   2180     1   0.14316 258236.480000
   2182   2185     1   0.15375 251793.120000
   2182   2191     1   0.15110 237065.440000
   2185   2188     1   0.15375 251793.120000
   2188   2194     1   0.14316 258236.480000
   2196   2199     1   0.15375 251793.120000
   2196   2205     1   0.15110 237065.440000
   2199   2202     1   0.15375 251793.120000
   2202   2208     1   0.14316 258236.480000
   2210   2213     1   0.15375 251793.120000
   2210   2219     1   0.15110 237065.440000
   2213   2216     1   0.15375 251793.120000
   2216   2222     1   0.14316 258236.480000
   2224   2227     1   0.15375 251793.120000
   2224   2233     1   0.15110 237065.440000
   2227   2230     1   0.15375 251793.120000
   2230   2236     1   0.14316 258236.480000
   2238   2241     1   0.15375 251793.120000
   2238   2247     1   0.15110 237065.440000
   2241   2244     1   0.15375 251793.120000
   2244   2250     1   0.14316 258236.480000
   2252   2255     1   0.15375 251793.120000
   2252   2261     1   0.15110 237065.440000
   2255   2258     1   0.15375 251793.120000
   2258   2264     1   0.14316 258236.480000
   2266   2269     1   0.15375 251793.120000
   2266   2275     1   0.15110 237065.440000
   2269   2272     1   0.15375 251793.120000
   2272   2278     1   0.14316 258236.480000
   2280   2283     1   0.15375 251793.120000
   2280   2289     1   0.15110 237065.440000
   2283   2286     1   0.15375 251793.120000
   2286   2292     1   0.14316 258236.480000
   2294   2297     1   0.15375 251793.120000
   2294   2303     1   0.15110 237065.440000
   2297   2300     1   0.15375 251793.120000
   2300   2306     1   0.14316 258236.480000
   2308   2311     1   0.15375 251793.120000
   2308   2317     1   0.15110 237065.440000
   2311   2314     1   0.15375 251793.120000
   2314   2320     1   0.14316 258236.480000
   2322   2325     1   0.15375 251793.120000
   2322   2331     1   0.15110 237065.440000
   2325   2328     1   0.15375 251793.120000
   2328   2334     1   0.14316 258236.480000
   2336   2339     1   0.15375 251793.120000
   2336   2345     1   0.15110 237065.440000
   2339   2342     1   0.15375 251793.120000
   2342   2348     1   0.14316 258236.480000
   2350   2353     1   0.15375 251793.120000
   2350   2359     1   0.15110 237065.440000
   2353   2356     1   0.15375 251793.120000
   2356   2362     1   0.14316 258236.480000
   2364   2367     1   0.15375 251793.120000
   2364   2373     1   0.15110 237065.440000
   2367   2370     1   0.15375 251793.120000
   2370   2376     1   0.14316 258236.480000
   2378   2381     1   0.15375 251793.120000
   2378   2387     1   0.15110 237065.440000
   2381   2384     1   0.15375 251793.120000
   2384   2390     1   0.14316 258236.480000
   2392   2395     1   0.15375 251793.120000
   2392   2401     1   0.15110 237065.440000
   2395   2398     1   0.15375 251793.120000
   2398   2404     1   0.14316 258236.480000
   2406   2409     1   0.15375 251793.120000
   2406   2415     1   0.15110 237065.440000
   2409   2412     1   0.15375 251793.120000
   2412   2418     1   0.14316 258236.480000
   2420   2423     1   0.15375 251793.120000
   2420   2429     1   0.15110 237065.440000
   2423   2426     1   0.15375 251793.120000
   2426   2432     1   0.14316 258236.480000
   2434   2437     1   0.15375 251793.120000
   2434   2443     1   0.15110 237065.440000
   2437   2440     1   0.15375 251793.120000
   2440   2446     1   0.14316 258236.480000
   2448   2451     1   0.15375 251793.120000
   2448   2457     1   0.15110 237065.440000
   2451   2454     1   0.15375 251793.120000
   2454   2460     1   0.14316 258236.480000
   2462   2465     1   0.15375 251793.120000
   2462   2471     1   0.15110 237065.440000
   2465   2468     1   0.15375 251793.120000
   2468   2474     1   0.14316 258236.480000
   2476   2479     1   0.15375 251793.120000
   2476   2485     1   0.15110 237065.440000
   2479   2482     1   0.15375 251793.120000
   2482   2488     1   0.14316 258236.480000
   2490   2493     1   0.15375 251793.120000
   2490   2499     1   0.15110 237065.440000
   2493   2496     1   0.15375 251793.120000
   2496   2502     1   0.14316 258236.480000
   2504   2507     1   0.15375 251793.120000
   2504   2513     1   0.15110 237065.440000
   2507   2510     1   0.15375 251793.120000
   2510   2516     1   0.14316 258236.480000
   2518   2521     1   0.15375 251793.120000
   2518   2527     1   0.15110 237065.440000
   2521   2524     1   0.15375 251793.120000
   2524   2530     1   0.14316 258236.480000
   2532   2535     1   0.15375 251793.120000
   2532   2541     1   0.15110 237065.440000
   2535   2538     1   0.15375 251793.120000
   2538   2544     1   0.14316 258236.480000
   2546   2549     1   0.15375 251793.120000
   2546   2555     1   0.15110 237065.440000
   2549   2552     1   0.15375 251793.120000
   2552   2558     1   0.14316 258236.480000
   2560   2563     1   0.15375 251793.120000
   2560   2569     1   0.15110 237065.440000
   2563   2566     1   0.15375 251793.120000
   2566   2572     1   0.14316 258236.480000
   2574   2577     1   0.15375 251793.120000
   2574   2583     1   0.15110 237065.440000
   2577   2580     1   0.15375 251793.120000
   2580   2586     1   0.14316 258236.480000
   2588   2591     1   0.15375 251793.120000
   2588   2597     1   0.15110 237065.440000
   2591   2594     1   0.15375 251793.120000
   2594   2600     1   0.14316 258236.480000
   2602   2605     1   0.15375 251793.120000
   2602   2611     1   0.15110 237065.440000
   2605   2608     1   0.15375 251793.120000
   2608   2614     1   0.14316 258236.480000
   2616   2619     1   0.15375 251793.120000
   2616   2625     1   0.15110 237065.440000
   2619   2622     1   0.15375 251793.120000
   2622   2628     1   0.14316 258236.480000
   2630   2633     1   0.15375 251793.120000
   2630   2639     1   0.15110 237065.440000
   2633   2636     1   0.15375 251793.120000
   2636   2642     1   0.14316 258236.480000
   2644   2647     1   0.15375 251793.120000
   2644   2653     1   0.15110 237065.440000
   2647   2650     1   0.15375 251793.120000
   2650   2656     1   0.14316 258236.480000
   2658   2661     1   0.15375 251793.120000
   2658   2667     1   0.15110 237065.440000
   2661   2664     1   0.15375 251793.120000
   2664   2670     1   0.14316 258236.480000
   2672   2675     1   0.15375 251793.120000
   2672   2681     1   0.15110 237065.440000
   2675   2678     1   0.15375 251793.120000
   2678   2684     1   0.14316 258236.480000
   2686   2689     1   0.15375 251793.120000
   2686   2695     1   0.15110 237065.440000
   2689   2692     1   0.15375 251793.120000
   2692   2698     1   0.14316 258236.480000
   2700   2703     1   0.15375 251793.120000
   2700   2709     1   0.15110 237065.440000
   2703   2706     1   0.15375 251793.120000
   2706   2712     1   0.14316 258236.480000
   2714   2717     1   0.15375 251793.120000
   2714   2723     1   0.15110 237065.440000
   2717   2720     1   0.15375 251793.120000
   2720   2726     1   0.14316 258236.480000
   2728   2731     1   0.15375 251793.120000
   2728   2737     1   0.15110 237065.440000
   2731   2734     1   0.15375 251793.120000
   2734   2740     1   0.14316 258236.480000
   2742   2745     1   0.15375 251793.120000
   2742   2751     1   0.15110 237065.440000
   2745   2748     1   0.15375 251793.120000
   2748   2754     1   0.14316 258236.480000
      2      3     1   0.10969 276646.080000
      2      4     1   0.10969 276646.080000
      5      6     1   0.10969 276646.080000
      5      7     1   0.10969 276646.080000
      8      9     1   0.10969 276646.080000
      8     10     1   0.10969 276646.080000
     11     12     1   0.10969 276646.080000
     11     13     1   0.10969 276646.080000
     14     15     1   0.10910 283424.160000
     14     16     1   0.10910 283424.160000
     17     18     1   0.10910 283424.160000
     17     19     1   0.10910 283424.160000
     20     58     1   0.10304 312293.760000
     21     59     1   0.10304 312293.760000
     22     23     1   0.10910 283424.160000
     22     24     1   0.10910 283424.160000
     25     26     1   0.10910 283424.160000
     25     27     1   0.10910 283424.160000
     28     29     1   0.10910 283424.160000
     28     30     1   0.10910 283424.160000
     31     32     1   0.10910 283424.160000
     31     33     1   0.10910 283424.160000
     34     35     1   0.10969 276646.080000
     34     36     1   0.10969 276646.080000
     37     38     1   0.10969 276646.080000
     37     39     1   0.10969 276646.080000
     40     41     1   0.10969 276646.080000
     40     42     1   0.10969 276646.080000
     43     44     1   0.10969 276646.080000
     43     45     1   0.10969 276646.080000
     46     47     1   0.10969 276646.080000
     46     48     1   0.10969 276646.080000
     49     50     1   0.10969 276646.080000
     49     51     1   0.10969 276646.080000
     52     53     1   0.10969 276646.080000
     52     54     1   0.10969 276646.080000
     55     56     1   0.10969 276646.080000
     55     57     1   0.10969 276646.080000
     60     89     1   0.10304 312293.760000
     61     62     1   0.10910 283424.160000
     61     63     1   0.10910 283424.160000
     64     65     1   0.10910 283424.160000
     64     66     1   0.10910 283424.160000
     67     68     1   0.10910 283424.160000
     67     69     1   0.10910 283424.160000
     70     71     1   0.10969 276646.080000
     70     72     1   0.10969 276646.080000
     73     74     1   0.10969 276646.080000
     73     75     1   0.10969 276646.080000
     76     77     1   0.10969 276646.080000
     76     78     1   0.10969 276646.080000
     79     80     1   0.10969 276646.080000
     79     81     1   0.10969 276646.080000
     82     83     1   0.10969 276646.080000
     82     84     1   0.10969 276646.080000
     85     86     1   0.10969 276646.080000
     85     87     1   0.10969 276646.080000
     90    119     1   0.10304 312293.760000
     91     92     1   0.10910 283424.160000
     91     93     1   0.10910 283424.160000
     94     95     1   0.10910 283424.160000
     94     96     1   0.10910 283424.160000
     97     98     1   0.10910 283424.160000
     97     99     1   0.10910 283424.160000
    100    101     1   0.10969 276646.080000
    100    102     1   0.10969 276646.080000
    103    104     1   0.10969 276646.080000
    103    105     1   0.10969 276646.080000
    106    107     1   0.10969 276646.080000
    106    108     1   0.10969 276646.080000
    109    110     1   0.10969 276646.080000
    109    111     1   0.10969 276646.080000
    112    113     1   0.10969 276646.080000
    112    114     1   0.10969 276646.080000
    115    116     1   0.10969 276646.080000
    115    117     1   0.10969 276646.080000
    120    149     1   0.10304 312293.760000
    121    122     1   0.10910 283424.160000
    121    123     1   0.10910 283424.160000
    124    125     1   0.10910 283424.160000
    124    126     1   0.10910 283424.160000
    127    128     1   0.10910 283424.160000
    127    129     1   0.10910 283424.160000
    130    131     1   0.10969 276646.080000
    130    132     1   0.10969 276646.080000
    133    134     1   0.10969 276646.080000
    133    135     1   0.10969 276646.080000
    136    137     1   0.10969 276646.080000
    136    138     1   0.10969 276646.080000
    139    140     1   0.10969 276646.080000
    139    141     1   0.10969 276646.080000
    142    143     1   0.10969 276646.080000
    142    144     1   0.10969 276646.080000
    145    146     1   0.10969 276646.080000
    145    147     1   0.10969 276646.080000
    150    179     1   0.10304 312293.760000
    151    152     1   0.10910 283424.160000
    151    153     1   0.10910 283424.160000
    154    155     1   0.10910 283424.160000
    154    156     1   0.10910 283424.160000
    157    158     1   0.10910 283424.160000
    157    159     1   0.10910 283424.160000
    160    161     1   0.10969 276646.080000
    160    162     1   0.10969 276646.080000
    163    164     1   0.10969 276646.080000
    163    165     1   0.10969 276646.080000
    166    167     1   0.10969 276646.080000
    166    168     1   0.10969 276646.080000
    169    170     1   0.10969 276646.080000
    169    171     1   0.10969 276646.080000
    172    173     1   0.10969 276646.080000
    172    174     1   0.10969 276646.080000
    175    176     1   0.10969 276646.080000
    175    177     1   0.10969 276646.080000
    180    209     1   0.10304 312293.760000
    181    182     1   0.10910 283424.160000
    181    183     1   0.10910 283424.160000
    184    185     1   0.10910 283424.160000
    184    186     1   0.10910 283424.160000
    187    188     1   0.10910 283424.160000
    187    189     1   0.10910 283424.160000
    190    191     1   0.10969 276646.080000
    190    192     1   0.10969 276646.080000
    193    194     1   0.10969 276646.080000
    193    195     1   0.10969 276646.080000
    196    197     1   0.10969 276646.080000
    196    198     1   0.10969 276646.080000
    199    200     1   0.10969 276646.080000
    199    201     1   0.10969 276646.080000
    202    203     1   0.10969 276646.080000
    202    204     1   0.10969 276646.080000
    205    206     1   0.10969 276646.080000
    205    207     1   0.10969 276646.080000
    210    239     1   0.10304 312293.760000
    211    212     1   0.10910 283424.160000
    211    213     1   0.10910 283424.160000
    214    215     1   0.10910 283424.160000
    214    216     1   0.10910 283424.160000
    217    218     1   0.10910 283424.160000
    217    219     1   0.10910 283424.160000
    220    221     1   0.10969 276646.080000
    220    222     1   0.10969 276646.080000
    223    224     1   0.10969 276646.080000
    223    225     1   0.10969 276646.080000
    226    227     1   0.10969 276646.080000
    226    228     1   0.10969 276646.080000
    229    230     1   0.10969 276646.080000
    229    231     1   0.10969 276646.080000
    232    233     1   0.10969 276646.080000
    232    234     1   0.10969 276646.080000
    235    236     1   0.10969 276646.080000
    235    237     1   0.10969 276646.080000
    240    269     1   0.10304 312293.760000
    241    242     1   0.10910 283424.160000
    241    243     1   0.10910 283424.160000
    244    245     1   0.10910 283424.160000
    244    246     1   0.10910 283424.160000
    247    248     1   0.10910 283424.160000
    247    249     1   0.10910 283424.160000
    250    251     1   0.10969 276646.080000
    250    252     1   0.10969 276646.080000
    253    254     1   0.10969 276646.080000
    253    255     1   0.10969 276646.080000
    256    257     1   0.10969 276646.080000
    256    258     1   0.10969 276646.080000
    259    260     1   0.10969 276646.080000
    259    261     1   0.10969 276646.080000
    262    263     1   0.10969 276646.080000
    262    264     1   0.10969 276646.080000
    265    266     1   0.10969 276646.080000
    265    267     1   0.10969 276646.080000
    270    299     1   0.10304 312293.760000
    271    272     1   0.10910 283424.160000
    271    273     1   0.10910 283424.160000
    274    275     1   0.10910 283424.160000
    274    276     1   0.10910 283424.160000
    277    278     1   0.10910 283424.160000
    277    279     1   0.10910 283424.160000
    280    281     1   0.10969 276646.080000
    280    282     1   0.10969 276646.080000
    283    284     1   0.10969 276646.080000
    283    285     1   0.10969 276646.080000
    286    287     1   0.10969 276646.080000
    286    288     1   0.10969 276646.080000
    289    290     1   0.10969 276646.080000
    289    291     1   0.10969 276646.080000
    292    293     1   0.10969 276646.080000
    292    294     1   0.10969 276646.080000
    295    296     1   0.10969 276646.080000
    295    297     1   0.10969 276646.080000
    300    329     1   0.10304 312293.760000
    301    302     1   0.10910 283424.160000
    301    303     1   0.10910 283424.160000
    304    305     1   0.10910 283424.160000
    304    306     1   0.10910 283424.160000
    307    308     1   0.10910 283424.160000
    307    309     1   0.10910 283424.160000
    310    311     1   0.10969 276646.080000
    310    312     1   0.10969 276646.080000
    313    314     1   0.10969 276646.080000
    313    315     1   0.10969 276646.080000
    316    317     1   0.10969 276646.080000
    316    318     1   0.10969 276646.080000
    319    320     1   0.10969 276646.080000
    319    321     1   0.10969 276646.080000
    322    323     1   0.10969 276646.080000
    322    324     1   0.10969 276646.080000
    325    326     1   0.10969 276646.080000
    325    327     1   0.10969 276646.080000
    330    359     1   0.10304 312293.760000
    331    332     1   0.10910 283424.160000
    331    333     1   0.10910 283424.160000
    334    335     1   0.10910 283424.160000
    334    336     1   0.10910 283424.160000
    337    338     1   0.10910 283424.160000
    337    339     1   0.10910 283424.160000
    340    341     1   0.10969 276646.080000
    340    342     1   0.10969 276646.080000
    343    344     1   0.10969 276646.080000
    343    345     1   0.10969 276646.080000
    346    347     1   0.10969 276646.080000
    346    348     1   0.10969 276646.080000
    349    350     1   0.10969 276646.080000
    349    351     1   0.10969 276646.080000
    352    353     1   0.10969 276646.080000
    352    354     1   0.10969 276646.080000
    355    356     1   0.10969 276646.080000
    355    357     1   0.10969 276646.080000
    360    389     1   0.10304 312293.760000
    361    362     1   0.10910 283424.160000
    361    363     1   0.10910 283424.160000
    364    365     1   0.10910 283424.160000
    364    366     1   0.10910 283424.160000
    367    368     1   0.10910 283424.160000
    367    369     1   0.10910 283424.160000
    370    371     1   0.10969 276646.080000
    370    372     1   0.10969 276646.080000
    373    374     1   0.10969 276646.080000
    373    375     1   0.10969 276646.080000
    376    377     1   0.10969 276646.080000
    376    378     1   0.10969 276646.080000
    379    380     1   0.10969 276646.080000
    379    381     1   0.10969 276646.080000
    382    383     1   0.10969 276646.080000
    382    384     1   0.10969 276646.080000
    385    386     1   0.10969 276646.080000
    385    387     1   0.10969 276646.080000
    390    419     1   0.10304 312293.760000
    391    392     1   0.10910 283424.160000
    391    393     1   0.10910 283424.160000
    394    395     1   0.10910 283424.160000
    394    396     1   0.10910 283424.160000
    397    398     1   0.10910 283424.160000
    397    399     1   0.10910 283424.160000
    400    401     1   0.10969 276646.080000
    400    402     1   0.10969 276646.080000
    403    404     1   0.10969 276646.080000
    403    405     1   0.10969 276646.080000
    406    407     1   0.10969 276646.080000
    406    408     1   0.10969 276646.080000
    409    410     1   0.10969 276646.080000
    409    411     1   0.10969 276646.080000
    412    413     1   0.10969 276646.080000
    412    414     1   0.10969 276646.080000
    415    416     1   0.10969 276646.080000
    415    417     1   0.10969 276646.080000
    420    449     1   0.10304 312293.760000
    421    422     1   0.10910 283424.160000
    421    423     1   0.10910 283424.160000
    424    425     1   0.10910 283424.160000
    424    426     1   0.10910 283424.160000
    427    428     1   0.10910 283424.160000
    427    429     1   0.10910 283424.160000
    430    431     1   0.10969 276646.080000
    430    432     1   0.10969 276646.080000
    433    434     1   0.10969 276646.080000
    433    435     1   0.10969 276646.080000
    436    437     1   0.10969 276646.080000
    436    438     1   0.10969 276646.080000
    439    440     1   0.10969 276646.080000
    439    441     1   0.10969 276646.080000
    442    443     1   0.10969 276646.080000
    442    444     1   0.10969 276646.080000
    445    446     1   0.10969 276646.080000
    445    447     1   0.10969 276646.080000
    450    479     1   0.10304 312293.760000
    451    452     1   0.10910 283424.160000
    451    453     1   0.10910 283424.160000
    454    455     1   0.10910 283424.160000
    454    456     1   0.10910 283424.160000
    457    458     1   0.10910 283424.160000
    457    459     1   0.10910 283424.160000
    460    461     1   0.10969 276646.080000
    460    462     1   0.10969 276646.080000
    463    464     1   0.10969 276646.080000
    463    465     1   0.10969 276646.080000
    466    467     1   0.10969 276646.080000
    466    468     1   0.10969 276646.080000
    469    470     1   0.10969 276646.080000
    469    471     1   0.10969 276646.080000
    472    473     1   0.10969 276646.080000
    472    474     1   0.10969 276646.080000
    475    476     1   0.10969 276646.080000
    475    477     1   0.10969 276646.080000
    480    509     1   0.10304 312293.760000
    481    482     1   0.10910 283424.160000
    481    483     1   0.10910 283424.160000
    484    485     1   0.10910 283424.160000
    484    486     1   0.10910 283424.160000
    487    488     1   0.10910 283424.160000
    487    489     1   0.10910 283424.160000
    490    491     1   0.10969 276646.080000
    490    492     1   0.10969 276646.080000
    493    494     1   0.10969 276646.080000
    493    495     1   0.10969 276646.080000
    496    497     1   0.10969 276646.080000
    496    498     1   0.10969 276646.080000
    499    500     1   0.10969 276646.080000
    499    501     1   0.10969 276646.080000
    502    503     1   0.10969 276646.080000
    502    504     1   0.10969 276646.080000
    505    506     1   0.10969 276646.080000
    505    507     1   0.10969 276646.080000
    510    539     1   0.10304 312293.760000
    511    512     1   0.10910 283424.160000
    511    513     1   0.10910 283424.160000
    514    515     1   0.10910 283424.160000
    514    516     1   0.10910 283424.160000
    517    518     1   0.10910 283424.160000
    517    519     1   0.10910 283424.160000
    520    521     1   0.10969 276646.080000
    520    522     1   0.10969 276646.080000
    523    524     1   0.10969 276646.080000
    523    525     1   0.10969 276646.080000
    526    527     1   0.10969 276646.080000
    526    528     1   0.10969 276646.080000
    529    530     1   0.10969 276646.080000
    529    531     1   0.10969 276646.080000
    532    533     1   0.10969 276646.080000
    532    534     1   0.10969 276646.080000
    535    536     1   0.10969 276646.080000
    535    537     1   0.10969 276646.080000
    540    569     1   0.10304 312293.760000
    541    542     1   0.10910 283424.160000
    541    543     1   0.10910 283424.160000
    544    545     1   0.10910 283424.160000
    544    546     1   0.10910 283424.160000
    547    548     1   0.10910 283424.160000
    547    549     1   0.10910 283424.160000
    550    551     1   0.10969 276646.080000
    550    552     1   0.10969 276646.080000
    553    554     1   0.10969 276646.080000
    553    555     1   0.10969 276646.080000
    556    557     1   0.10969 276646.080000
    556    558     1   0.10969 276646.080000
    559    560     1   0.10969 276646.080000
    559    561     1   0.10969 276646.080000
    562    563     1   0.10969 276646.080000
    562    564     1   0.10969 276646.080000
    565    566     1   0.10969 276646.080000
    565    567     1   0.10969 276646.080000
    570    599     1   0.10304 312293.760000
    571    572     1   0.10910 283424.160000
    571    573     1   0.10910 283424.160000
    574    575     1   0.10910 283424.160000
    574    576     1   0.10910 283424.160000
    577    578     1   0.10910 283424.160000
    577    579     1   0.10910 283424.160000
    580    581     1   0.10969 276646.080000
    580    582     1   0.10969 276646.080000
    583    584     1   0.10969 276646.080000
    583    585     1   0.10969 276646.080000
    586    587     1   0.10969 276646.080000
    586    588     1   0.10969 276646.080000
    589    590     1   0.10969 276646.080000
    589    591     1   0.10969 276646.080000
    592    593     1   0.10969 276646.080000
    592    594     1   0.10969 276646.080000
    595    596     1   0.10969 276646.080000
    595    597     1   0.10969 276646.080000
    600    629     1   0.10304 312293.760000
    601    602     1   0.10910 283424.160000
    601    603     1   0.10910 283424.160000
    604    605     1   0.10910 283424.160000
    604    606     1   0.10910 283424.160000
    607    608     1   0.10910 283424.160000
    607    609     1   0.10910 283424.160000
    610    611     1   0.10969 276646.080000
    610    612     1   0.10969 276646.080000
    613    614     1   0.10969 276646.080000
    613    615     1   0.10969 276646.080000
    616    617     1   0.10969 276646.080000
    616    618     1   0.10969 276646.080000
    619    620     1   0.10969 276646.080000
    619    621     1   0.10969 276646.080000
    622    623     1   0.10969 276646.080000
    622    624     1   0.10969 276646.080000
    625    626     1   0.10969 276646.080000
    625    627     1   0.10969 276646.080000
    630    659     1   0.10304 312293.760000
    631    632     1   0.10910 283424.160000
    631    633     1   0.10910 283424.160000
    634    635     1   0.10910 283424.160000
    634    636     1   0.10910 283424.160000
    637    638     1   0.10910 283424.160000
    637    639     1   0.10910 283424.160000
    640    641     1   0.10969 276646.080000
    640    642     1   0.10969 276646.080000
    643    644     1   0.10969 276646.080000
    643    645     1   0.10969 276646.080000
    646    647     1   0.10969 276646.080000
    646    648     1   0.10969 276646.080000
    649    650     1   0.10969 276646.080000
    649    651     1   0.10969 276646.080000
    652    653     1   0.10969 276646.080000
    652    654     1   0.10969 276646.080000
    655    656     1   0.10969 276646.080000
    655    657     1   0.10969 276646.080000
    660    689     1   0.10304 312293.760000
    661    662     1   0.10910 283424.160000
    661    663     1   0.10910 283424.160000
    664    665     1   0.10910 283424.160000
    664    666     1   0.10910 283424.160000
    667    668     1   0.10910 283424.160000
    667    669     1   0.10910 283424.160000
    670    671     1   0.10969 276646.080000
    670    672     1   0.10969 276646.080000
    673    674     1   0.10969 276646.080000
    673    675     1   0.10969 276646.080000
    676    677     1   0.10969 276646.080000
    676    678     1   0.10969 276646.080000
    679    680     1   0.10969 276646.080000
    679    681     1   0.10969 276646.080000
    682    683     1   0.10969 276646.080000
    682    684     1   0.10969 276646.080000
    685    686     1   0.10969 276646.080000
    685    687     1   0.10969 276646.080000
    690    719     1   0.10304 312293.760000
    691    692     1   0.10910 283424.160000
    691    693     1   0.10910 283424.160000
    694    695     1   0.10910 283424.160000
    694    696     1   0.10910 283424.160000
    697    698     1   0.10910 283424.160000
    697    699     1   0.10910 283424.160000
    700    701     1   0.10969 276646.080000
    700    702     1   0.10969 276646.080000
    703    704     1   0.10969 276646.080000
    703    705     1   0.10969 276646.080000
    706    707     1   0.10969 276646.080000
    706    708     1   0.10969 276646.080000
    709    710     1   0.10969 276646.080000
    709    711     1   0.10969 276646.080000
    712    713     1   0.10969 276646.080000
    712    714     1   0.10969 276646.080000
    715    716     1   0.10969 276646.080000
    715    717     1   0.10969 276646.080000
    720    749     1   0.10304 312293.760000
    721    722     1   0.10910 283424.160000
    721    723     1   0.10910 283424.160000
    724    725     1   0.10910 283424.160000
    724    726     1   0.10910 283424.160000
    727    728     1   0.10910 283424.160000
    727    729     1   0.10910 283424.160000
    730    731     1   0.10969 276646.080000
    730    732     1   0.10969 276646.080000
    733    734     1   0.10969 276646.080000
    733    735     1   0.10969 276646.080000
    736    737     1   0.10969 276646.080000
    736    738     1   0.10969 276646.080000
    739    740     1   0.10969 276646.080000
    739    741     1   0.10969 276646.080000
    742    743     1   0.10969 276646.080000
    742    744     1   0.10969 276646.080000
    745    746     1   0.10969 276646.080000
    745    747     1   0.10969 276646.080000
    750    779     1   0.10304 312293.760000
    751    752     1   0.10910 283424.160000
    751    753     1   0.10910 283424.160000
    754    755     1   0.10910 283424.160000
    754    756     1   0.10910 283424.160000
    757    758     1   0.10910 283424.160000
    757    759     1   0.10910 283424.160000
    760    761     1   0.10969 276646.080000
    760    762     1   0.10969 276646.080000
    763    764     1   0.10969 276646.080000
    763    765     1   0.10969 276646.080000
    766    767     1   0.10969 276646.080000
    766    768     1   0.10969 276646.080000
    769    770     1   0.10969 276646.080000
    769    771     1   0.10969 276646.080000
    772    773     1   0.10969 276646.080000
    772    774     1   0.10969 276646.080000
    775    776     1   0.10969 276646.080000
    775    777     1   0.10969 276646.080000
    780    809     1   0.10304 312293.760000
    781    782     1   0.10910 283424.160000
    781    783     1   0.10910 283424.160000
    784    785     1   0.10910 283424.160000
    784    786     1   0.10910 283424.160000
    787    788     1   0.10910 283424.160000
    787    789     1   0.10910 283424.160000
    790    791     1   0.10969 276646.080000
    790    792     1   0.10969 276646.080000
    793    794     1   0.10969 276646.080000
    793    795     1   0.10969 276646.080000
    796    797     1   0.10969 276646.080000
    796    798     1   0.10969 276646.080000
    799    800     1   0.10969 276646.080000
    799    801     1   0.10969 276646.080000
    802    803     1   0.10969 276646.080000
    802    804     1   0.10969 276646.080000
    805    806     1   0.10969 276646.080000
    805    807     1   0.10969 276646.080000
    810    839     1   0.10304 312293.760000
    811    812     1   0.10910 283424.160000
    811    813     1   0.10910 283424.160000
    814    815     1   0.10910 283424.160000
    814    816     1   0.10910 283424.160000
    817    818     1   0.10910 283424.160000
    817    819     1   0.10910 283424.160000
    820    821     1   0.10969 276646.080000
    820    822     1   0.10969 276646.080000
    823    824     1   0.10969 276646.080000
    823    825     1   0.10969 276646.080000
    826    827     1   0.10969 276646.080000
    826    828     1   0.10969 276646.080000
    829    830     1   0.10969 276646.080000
    829    831     1   0.10969 276646.080000
    832    833     1   0.10969 276646.080000
    832    834     1   0.10969 276646.080000
    835    836     1   0.10969 276646.080000
    835    837     1   0.10969 276646.080000
    840    869     1   0.10304 312293.760000
    841    842     1   0.10910 283424.160000
    841    843     1   0.10910 283424.160000
    844    845     1   0.10910 283424.160000
    844    846     1   0.10910 283424.160000
    847    848     1   0.10910 283424.160000
    847    849     1   0.10910 283424.160000
    850    851     1   0.10969 276646.080000
    850    852     1   0.10969 276646.080000
    853    854     1   0.10969 276646.080000
    853    855     1   0.10969 276646.080000
    856    857     1   0.10969 276646.080000
    856    858     1   0.10969 276646.080000
    859    860     1   0.10969 276646.080000
    859    861     1   0.10969 276646.080000
    862    863     1   0.10969 276646.080000
    862    864     1   0.10969 276646.080000
    865    866     1   0.10969 276646.080000
    865    867     1   0.10969 276646.080000
    870    899     1   0.10304 312293.760000
    871    872     1   0.10910 283424.160000
    871    873     1   0.10910 283424.160000
    874    875     1   0.10910 283424.160000
    874    876     1   0.10910 283424.160000
    877    878     1   0.10910 283424.160000
    877    879     1   0.10910 283424.160000
    880    881     1   0.10969 276646.080000
    880    882     1   0.10969 276646.080000
    883    884     1   0.10969 276646.080000
    883    885     1   0.10969 276646.080000
    886    887     1   0.10969 276646.080000
    886    888     1   0.10969 276646.080000
    889    890     1   0.10969 276646.080000
    889    891     1   0.10969 276646.080000
    892    893     1   0.10969 276646.080000
    892    894     1   0.10969 276646.080000
    895    896     1   0.10969 276646.080000
    895    897     1   0.10969 276646.080000
    900    929     1   0.10304 312293.760000
    901    902     1   0.10910 283424.160000
    901    903     1   0.10910 283424.160000
    904    905     1   0.10910 283424.160000
    904    906     1   0.10910 283424.160000
    907    908     1   0.10910 283424.160000
    907    909     1   0.10910 283424.160000
    910    911     1   0.10969 276646.080000
    910    912     1   0.10969 276646.080000
    913    914     1   0.10969 276646.080000
    913    915     1   0.10969 276646.080000
    916    917     1   0.10969 276646.080000
    916    918     1   0.10969 276646.080000
    919    920     1   0.10969 276646.080000
    919    921     1   0.10969 276646.080000
    922    923     1   0.10969 276646.080000
    922    924     1   0.10969 276646.080000
    925    926     1   0.10969 276646.080000
    925    927     1   0.10969 276646.080000
    930    959     1   0.10304 312293.760000
    931    932     1   0.10910 283424.160000
    931    933     1   0.10910 283424.160000
    934    935     1   0.10910 283424.160000
    934    936     1   0.10910 283424.160000
    937    938     1   0.10910 283424.160000
    937    939     1   0.10910 283424.160000
    940    941     1   0.10969 276646.080000
    940    942     1   0.10969 276646.080000
    943    944     1   0.10969 276646.080000
    943    945     1   0.10969 276646.080000
    946    947     1   0.10969 276646.080000
    946    948     1   0.10969 276646.080000
    949    950     1   0.10969 276646.080000
    949    951     1   0.10969 276646.080000
    952    953     1   0.10969 276646.080000
    952    954     1   0.10969 276646.080000
    955    956     1   0.10969 276646.080000
    955    957     1   0.10969 276646.080000
    960    989     1   0.10304 312293.760000
    961    962     1   0.10910 283424.160000
    961    963     1   0.10910 283424.160000
    964    965     1   0.10910 283424.160000
    964    966     1   0.10910 283424.160000
    967    968     1   0.10910 283424.160000
    967    969     1   0.10910 283424.160000
    970    971     1   0.10969 276646.080000
    970    972     1   0.10969 276646.080000
    973    974     1   0.10969 276646.080000
    973    975     1   0.10969 276646.080000
    976    977     1   0.10969 276646.080000
    976    978     1   0.10969 276646.080000
    979    980     1   0.10969 276646.080000
    979    981     1   0.10969 276646.080000
    982    983     1   0.10969 276646.080000
    982    984     1   0.10969 276646.080000
    985    986     1   0.10969 276646.080000
    985    987     1   0.10969 276646.080000
    990   1019     1   0.10304 312293.760000
    991    992     1   0.10910 283424.160000
    991    993     1   0.10910 283424.160000
    994    995     1   0.10910 283424.160000
    994    996     1   0.10910 283424.160000
    997    998     1   0.10910 283424.160000
    997    999     1   0.10910 283424.160000
   1000   1001     1   0.10969 276646.080000
   1000   1002     1   0.10969 276646.080000
   1003   1004     1   0.10969 276646.080000
   1003   1005     1   0.10969 276646.080000
   1006   1007     1   0.10969 276646.080000
   1006   1008     1   0.10969 276646.080000
   1009   1010     1   0.10969 276646.080000
   1009   1011     1   0.10969 276646.080000
   1012   1013     1   0.10969 276646.080000
   1012   1014     1   0.10969 276646.080000
   1015   1016     1   0.10969 276646.080000
   1015   1017     1   0.10969 276646.080000
   1020   1049     1   0.10304 312293.760000
   1021   1022     1   0.10910 283424.160000
   1021   1023     1   0.10910 283424.160000
   1024   1025     1   0.10910 283424.160000
   1024   1026     1   0.10910 283424.160000
   1027   1028     1   0.10910 283424.160000
   1027   1029     1   0.10910 283424.160000
   1030   1031     1   0.10969 276646.080000
   1030   1032     1   0.10969 276646.080000
   1033   1034     1   0.10969 276646.080000
   1033   1035     1   0.10969 276646.080000
   1036   1037     1   0.10969 276646.080000
   1036   1038     1   0.10969 276646.080000
   1039   1040     1   0.10969 276646.080000
   1039   1041     1   0.10969 276646.080000
   1042   1043     1   0.10969 276646.080000
   1042   1044     1   0.10969 276646.080000
   1045   1046     1   0.10969 276646.080000
   1045   1047     1   0.10969 276646.080000
   1050   1079     1   0.10304 312293.760000
   1051   1052     1   0.10910 283424.160000
   1051   1053     1   0.10910 283424.160000
   1054   1055     1   0.10910 283424.160000
   1054   1056     1   0.10910 283424.160000
   1057   1058     1   0.10910 283424.160000
   1057   1059     1   0.10910 283424.160000
   1060   1061     1   0.10969 276646.080000
   1060   1062     1   0.10969 276646.080000
   1063   1064     1   0.10969 276646.080000
   1063   1065     1   0.10969 276646.080000
   1066   1067     1   0.10969 276646.080000
   1066   1068     1   0.10969 276646.080000
   1069   1070     1   0.10969 276646.080000
   1069   1071     1   0.10969 276646.080000
   1072   1073     1   0.10969 276646.080000
   1072   1074     1   0.10969 276646.080000
   1075   1076     1   0.10969 276646.080000
   1075   1077     1   0.10969 276646.080000
   1080   1109     1   0.10304 312293.760000
   1081   1082     1   0.10910 283424.160000
   1081   1083     1   0.10910 283424.160000
   1084   1085     1   0.10910 283424.160000
   1084   1086     1   0.10910 283424.160000
   1087   1088     1   0.10910 283424.160000
   1087   1089     1   0.10910 283424.160000
   1090   1091     1   0.10969 276646.080000
   1090   1092     1   0.10969 276646.080000
   1093   1094     1   0.10969 276646.080000
   1093   1095     1   0.10969 276646.080000
   1096   1097     1   0.10969 276646.080000
   1096   1098     1   0.10969 276646.080000
   1099   1100     1   0.10969 276646.080000
   1099   1101     1   0.10969 276646.080000
   1102   1103     1   0.10969 276646.080000
   1102   1104     1   0.10969 276646.080000
   1105   1106     1   0.10969 276646.080000
   1105   1107     1   0.10969 276646.080000
   1110   1139     1   0.10304 312293.760000
   1111   1112     1   0.10910 283424.160000
   1111   1113     1   0.10910 283424.160000
   1114   1115     1   0.10910 283424.160000
   1114   1116     1   0.10910 283424.160000
   1117   1118     1   0.10910 283424.160000
   1117   1119     1   0.10910 283424.160000
   1120   1121     1   0.10969 276646.080000
   1120   1122     1   0.10969 276646.080000
   1123   1124     1   0.10969 276646.080000
   1123   1125     1   0.10969 276646.080000
   1126   1127     1   0.10969 276646.080000
   1126   1128     1   0.10969 276646.080000
   1129   1130     1   0.10969 276646.080000
   1129   1131     1   0.10969 276646.080000
   1132   1133     1   0.10969 276646.080000
   1132   1134     1   0.10969 276646.080000
   1135   1136     1   0.10969 276646.080000
   1135   1137     1   0.10969 276646.080000
   1140   1169     1   0.10304 312293.760000
   1141   1142     1   0.10910 283424.160000
   1141   1143     1   0.10910 283424.160000
   1144   1145     1   0.10910 283424.160000
   1144   1146     1   0.10910 283424.160000
   1147   1148     1   0.10910 283424.160000
   1147   1149     1   0.10910 283424.160000
   1150   1151     1   0.10969 276646.080000
   1150   1152     1   0.10969 276646.080000
   1153   1154     1   0.10969 276646.080000
   1153   1155     1   0.10969 276646.080000
   1156   1157     1   0.10969 276646.080000
   1156   1158     1   0.10969 276646.080000
   1159   1160     1   0.10969 276646.080000
   1159   1161     1   0.10969 276646.080000
   1162   1163     1   0.10969 276646.080000
   1162   1164     1   0.10969 276646.080000
   1165   1166     1   0.10969 276646.080000
   1165   1167     1   0.10969 276646.080000
   1170   1199     1   0.10304 312293.760000
   1171   1172     1   0.10910 283424.160000
   1171   1173     1   0.10910 283424.160000
   1174   1175     1   0.10910 283424.160000
   1174   1176     1   0.10910 283424.160000
   1177   1178     1   0.10910 283424.160000
   1177   1179     1   0.10910 283424.160000
   1180   1181     1   0.10969 276646.080000
   1180   1182     1   0.10969 276646.080000
   1183   1184     1   0.10969 276646.080000
   1183   1185     1   0.10969 276646.080000
   1186   1187     1   0.10969 276646.080000
   1186   1188     1   0.10969 276646.080000
   1189   1190     1   0.10969 276646.080000
   1189   1191     1   0.10969 276646.080000
   1192   1193     1   0.10969 276646.080000
   1192   1194     1   0.10969 276646.080000
   1195   1196     1   0.10969 276646.080000
   1195   1197     1   0.10969 276646.080000
   1200   1229     1   0.10304 312293.760000
   1201   1202     1   0.10910 283424.160000
   1201   1203     1   0.10910 283424.160000
   1204   1205     1   0.10910 283424.160000
   1204   1206     1   0.10910 283424.160000
   1207   1208     1   0.10910 283424.160000
   1207   1209     1   0.10910 283424.160000
   1210   1211     1   0.10969 276646.080000
   1210   1212     1   0.10969 276646.080000
   1213   1214     1   0.10969 276646.080000
   1213   1215     1   0.10969 276646.080000
   1216   1217     1   0.10969 276646.080000
   1216   1218     1   0.10969 276646.080000
   1219   1220     1   0.10969 276646.080000
   1219   1221     1   0.10969 276646.080000
   1222   1223     1   0.10969 276646.080000
   1222   1224     1   0.10969 276646.080000
   1225   1226     1   0.10969 276646.080000
   1225   1227     1   0.10969 276646.080000
   1230   1259     1   0.10304 312293.760000
   1231   1232     1   0.10910 283424.160000
   1231   1233     1   0.10910 283424.160000
   1234   1235     1   0.10910 283424.160000
   1234   1236     1   0.10910 283424.160000
   1237   1238     1   0.10910 283424.160000
   1237   1239     1   0.10910 283424.160000
   1240   1241     1   0.10969 276646.080000
   1240   1242     1   0.10969 276646.080000
   1243   1244     1   0.10969 276646.080000
   1243   1245     1   0.10969 276646.080000
   1246   1247     1   0.10969 276646.080000
   1246   1248     1   0.10969 276646.080000
   1249   1250     1   0.10969 276646.080000
   1249   1251     1   0.10969 276646.080000
   1252   1253     1   0.10969 276646.080000
   1252   1254     1   0.10969 276646.080000
   1255   1256     1   0.10969 276646.080000
   1255   1257     1   0.10969 276646.080000
   1260   1289     1   0.10304 312293.760000
   1261   1262     1   0.10910 283424.160000
   1261   1263     1   0.10910 283424.160000
   1264   1265     1   0.10910 283424.160000
   1264   1266     1   0.10910 283424.160000
   1267   1268     1   0.10910 283424.160000
   1267   1269     1   0.10910 283424.160000
   1270   1271     1   0.10969 276646.080000
   1270   1272     1   0.10969 276646.080000
   1273   1274     1   0.10969 276646.080000
   1273   1275     1   0.10969 276646.080000
   1276   1277     1   0.10969 276646.080000
   1276   1278     1   0.10969 276646.080000
   1279   1280     1   0.10969 276646.080000
   1279   1281     1   0.10969 276646.080000
   1282   1283     1   0.10969 276646.080000
   1282   1284     1   0.10969 276646.080000
   1285   1286     1   0.10969 276646.080000
   1285   1287     1   0.10969 276646.080000
   1290   1319     1   0.10304 312293.760000
   1291   1292     1   0.10910 283424.160000
   1291   1293     1   0.10910 283424.160000
   1294   1295     1   0.10910 283424.160000
   1294   1296     1   0.10910 283424.160000
   1297   1298     1   0.10910 283424.160000
   1297   1299     1   0.10910 283424.160000
   1300   1301     1   0.10969 276646.080000
   1300   1302     1   0.10969 276646.080000
   1303   1304     1   0.10969 276646.080000
   1303   1305     1   0.10969 276646.080000
   1306   1307     1   0.10969 276646.080000
   1306   1308     1   0.10969 276646.080000
   1309   1310     1   0.10969 276646.080000
   1309   1311     1   0.10969 276646.080000
   1312   1313     1   0.10969 276646.080000
   1312   1314     1   0.10969 276646.080000
   1315   1316     1   0.10969 276646.080000
   1315   1317     1   0.10969 276646.080000
   1320   1349     1   0.10304 312293.760000
   1321   1322     1   0.10910 283424.160000
   1321   1323     1   0.10910 283424.160000
   1324   1325     1   0.10910 283424.160000
   1324   1326     1   0.10910 283424.160000
   1327   1328     1   0.10910 283424.160000
   1327   1329     1   0.10910 283424.160000
   1330   1331     1   0.10969 276646.080000
   1330   1332     1   0.10969 276646.080000
   1333   1334     1   0.10969 276646.080000
   1333   1335     1   0.10969 276646.080000
   1336   1337     1   0.10969 276646.080000
   1336   1338     1   0.10969 276646.080000
   1339   1340     1   0.10969 276646.080000
   1339   1341     1   0.10969 276646.080000
   1342   1343     1   0.10969 276646.080000
   1342   1344     1   0.10969 276646.080000
   1345   1346     1   0.10969 276646.080000
   1345   1347     1   0.10969 276646.080000
   1350   1379     1   0.10304 312293.760000
   1351   1352     1   0.10910 283424.160000
   1351   1353     1   0.10910 283424.160000
   1354   1355     1   0.10910 283424.160000
   1354   1356     1   0.10910 283424.160000
   1357   1358     1   0.10910 283424.160000
   1357   1359     1   0.10910 283424.160000
   1360   1361     1   0.10969 276646.080000
   1360   1362     1   0.10969 276646.080000
   1363   1364     1   0.10969 276646.080000
   1363   1365     1   0.10969 276646.080000
   1366   1367     1   0.10969 276646.080000
   1366   1368     1   0.10969 276646.080000
   1369   1370     1   0.10969 276646.080000
   1369   1371     1   0.10969 276646.080000
   1372   1373     1   0.10969 276646.080000
   1372   1374     1   0.10969 276646.080000
   1375   1376     1   0.10969 276646.080000
   1375   1377     1   0.10969 276646.080000
   1380   1409     1   0.10304 312293.760000
   1381   1382     1   0.10910 283424.160000
   1381   1383     1   0.10910 283424.160000
   1384   1385     1   0.10910 283424.160000
   1384   1386     1   0.10910 283424.160000
   1387   1388     1   0.10910 283424.160000
   1387   1389     1   0.10910 283424.160000
   1390   1391     1   0.10969 276646.080000
   1390   1392     1   0.10969 276646.080000
   1393   1394     1   0.10969 276646.080000
   1393   1395     1   0.10969 276646.080000
   1396   1397     1   0.10969 276646.080000
   1396   1398     1   0.10969 276646.080000
   1399   1400     1   0.10969 276646.080000
   1399   1401     1   0.10969 276646.080000
   1402   1403     1   0.10969 276646.080000
   1402   1404     1   0.10969 276646.080000
   1405   1406     1   0.10969 276646.080000
   1405   1407     1   0.10969 276646.080000
   1410   1439     1   0.10304 312293.760000
   1411   1412     1   0.10910 283424.160000
   1411   1413     1   0.10910 283424.160000
   1414   1415     1   0.10910 283424.160000
   1414   1416     1   0.10910 283424.160000
   1417   1418     1   0.10910 283424.160000
   1417   1419     1   0.10910 283424.160000
   1420   1421     1   0.10969 276646.080000
   1420   1422     1   0.10969 276646.080000
   1423   1424     1   0.10969 276646.080000
   1423   1425     1   0.10969 276646.080000
   1426   1427     1   0.10969 276646.080000
   1426   1428     1   0.10969 276646.080000
   1429   1430     1   0.10969 276646.080000
   1429   1431     1   0.10969 276646.080000
   1432   1433     1   0.10969 276646.080000
   1432   1434     1   0.10969 276646.080000
   1435   1436     1   0.10969 276646.080000
   1435   1437     1   0.10969 276646.080000
   1440   1469     1   0.10304 312293.760000
   1441   1442     1   0.10910 283424.160000
   1441   1443     1   0.10910 283424.160000
   1444   1445     1   0.10910 283424.160000
   1444   1446     1   0.10910 283424.160000
   1447   1448     1   0.10910 283424.160000
   1447   1449     1   0.10910 283424.160000
   1450   1451     1   0.10969 276646.080000
   1450   1452     1   0.10969 276646.080000
   1453   1454     1   0.10969 276646.080000
   1453   1455     1   0.10969 276646.080000
   1456   1457     1   0.10969 276646.080000
   1456   1458     1   0.10969 276646.080000
   1459   1460     1   0.10969 276646.080000
   1459   1461     1   0.10969 276646.080000
   1462   1463     1   0.10969 276646.080000
   1462   1464     1   0.10969 276646.080000
   1465   1466     1   0.10969 276646.080000
   1465   1467     1   0.10969 276646.080000
   1470   1499     1   0.10304 312293.760000
   1471   1472     1   0.10910 283424.160000
   1471   1473     1   0.10910 283424.160000
   1474   1475     1   0.10910 283424.160000
   1474   1476     1   0.10910 283424.160000
   1477   1478     1   0.10910 283424.160000
   1477   1479     1   0.10910 283424.160000
   1480   1481     1   0.10969 276646.080000
   1480   1482     1   0.10969 276646.080000
   1483   1484     1   0.10969 276646.080000
   1483   1485     1   0.10969 276646.080000
   1486   1487     1   0.10969 276646.080000
   1486   1488     1   0.10969 276646.080000
   1489   1490     1   0.10969 276646.080000
   1489   1491     1   0.10969 276646.080000
   1492   1493     1   0.10969 276646.080000
   1492   1494     1   0.10969 276646.080000
   1495   1496     1   0.10969 276646.080000
   1495   1497     1   0.10969 276646.080000
   1500   1529     1   0.10304 312293.760000
   1501   1502     1   0.10910 283424.160000
   1501   1503     1   0.10910 283424.160000
   1504   1505     1   0.10910 283424.160000
   1504   1506     1   0.10910 283424.160000
   1507   1508     1   0.10910 283424.160000
   1507   1509     1   0.10910 283424.160000
   1510   1511     1   0.10969 276646.080000
   1510   1512     1   0.10969 276646.080000
   1513   1514     1   0.10969 276646.080000
   1513   1515     1   0.10969 276646.080000
   1516   1517     1   0.10969 276646.080000
   1516   1518     1   0.10969 276646.080000
   1519   1520     1   0.10969 276646.080000
   1519   1521     1   0.10969 276646.080000
   1522   1523     1   0.10969 276646.080000
   1522   1524     1   0.10969 276646.080000
   1525   1526     1   0.10969 276646.080000
   1525   1527     1   0.10969 276646.080000
   1530   1559     1   0.10304 312293.760000
   1531   1532     1   0.10910 283424.160000
   1531   1533     1   0.10910 283424.160000
   1534   1535     1   0.10910 283424.160000
   1534   1536     1   0.10910 283424.160000
   1537   1538     1   0.10910 283424.160000
   1537   1539     1   0.10910 283424.160000
   1540   1541     1   0.10969 276646.080000
   1540   1542     1   0.10969 276646.080000
   1543   1544     1   0.10969 276646.080000
   1543   1545     1   0.10969 276646.080000
   1546   1547     1   0.10969 276646.080000
   1546   1548     1   0.10969 276646.080000
   1549   1550     1   0.10969 276646.080000
   1549   1551     1   0.10969 276646.080000
   1552   1553     1   0.10969 276646.080000
   1552   1554     1   0.10969 276646.080000
   1555   1556     1   0.10969 276646.080000
   1555   1557     1   0.10969 276646.080000
   1560   1589     1   0.10304 312293.760000
   1561   1562     1   0.10910 283424.160000
   1561   1563     1   0.10910 283424.160000
   1564   1565     1   0.10910 283424.160000
   1564   1566     1   0.10910 283424.160000
   1567   1568     1   0.10910 283424.160000
   1567   1569     1   0.10910 283424.160000
   1570   1571     1   0.10969 276646.080000
   1570   1572     1   0.10969 276646.080000
   1573   1574     1   0.10969 276646.080000
   1573   1575     1   0.10969 276646.080000
   1576   1577     1   0.10969 276646.080000
   1576   1578     1   0.10969 276646.080000
   1579   1580     1   0.10969 276646.080000
   1579   1581     1   0.10969 276646.080000
   1582   1583     1   0.10969 276646.080000
   1582   1584     1   0.10969 276646.080000
   1585   1586     1   0.10969 276646.080000
   1585   1587     1   0.10969 276646.080000
   1590   1619     1   0.10304 312293.760000
   1591   1592     1   0.10910 283424.160000
   1591   1593     1   0.10910 283424.160000
   1594   1595     1   0.10910 283424.160000
   1594   1596     1   0.10910 283424.160000
   1597   1598     1   0.10910 283424.160000
   1597   1599     1   0.10910 283424.160000
   1600   1601     1   0.10969 276646.080000
   1600   1602     1   0.10969 276646.080000
   1603   1604     1   0.10969 276646.080000
   1603   1605     1   0.10969 276646.080000
   1606   1607     1   0.10969 276646.080000
   1606   1608     1   0.10969 276646.080000
   1609   1610     1   0.10969 276646.080000
   1609   1611     1   0.10969 276646.080000
   1612   1613     1   0.10969 276646.080000
   1612   1614     1   0.10969 276646.080000
   1615   1616     1   0.10969 276646.080000
   1615   1617     1   0.10969 276646.080000
   1620   1649     1   0.10304 312293.760000
   1621   1622     1   0.10910 283424.160000
   1621   1623     1   0.10910 283424.160000
   1624   1625     1   0.10910 283424.160000
   1624   1626     1   0.10910 283424.160000
   1627   1628     1   0.10910 283424.160000
   1627   1629     1   0.10910 283424.160000
   1630   1631     1   0.10969 276646.080000
   1630   1632     1   0.10969 276646.080000
   1633   1634     1   0.10969 276646.080000
   1633   1635     1   0.10969 276646.080000
   1636   1637     1   0.10969 276646.080000
   1636   1638     1   0.10969 276646.080000
   1639   1640     1   0.10969 276646.080000
   1639   1641     1   0.10969 276646.080000
   1642   1643     1   0.10969 276646.080000
   1642   1644     1   0.10969 276646.080000
   1645   1646     1   0.10969 276646.080000
   1645   1647     1   0.10969 276646.080000
   1650   1679     1   0.10304 312293.760000
   1651   1652     1   0.10910 283424.160000
   1651   1653     1   0.10910 283424.160000
   1654   1655     1   0.10910 283424.160000
   1654   1656     1   0.10910 283424.160000
   1657   1658     1   0.10910 283424.160000
   1657   1659     1   0.10910 283424.160000
   1660   1661     1   0.10969 276646.080000
   1660   1662     1   0.10969 276646.080000
   1663   1664     1   0.10969 276646.080000
   1663   1665     1   0.10969 276646.080000
   1666   1667     1   0.10969 276646.080000
   1666   1668     1   0.10969 276646.080000
   1669   1670     1   0.10969 276646.080000
   1669   1671     1   0.10969 276646.080000
   1672   1673     1   0.10969 276646.080000
   1672   1674     1   0.10969 276646.080000
   1675   1676     1   0.10969 276646.080000
   1675   1677     1   0.10969 276646.080000
   1680   1709     1   0.10304 312293.760000
   1681   1682     1   0.10910 283424.160000
   1681   1683     1   0.10910 283424.160000
   1684   1685     1   0.10910 283424.160000
   1684   1686     1   0.10910 283424.160000
   1687   1688     1   0.10910 283424.160000
   1687   1689     1   0.10910 283424.160000
   1690   1691     1   0.10969 276646.080000
   1690   1692     1   0.10969 276646.080000
   1693   1694     1   0.10969 276646.080000
   1693   1695     1   0.10969 276646.080000
   1696   1697     1   0.10969 276646.080000
   1696   1698     1   0.10969 276646.080000
   1699   1700     1   0.10969 276646.080000
   1699   1701     1   0.10969 276646.080000
   1702   1703     1   0.10969 276646.080000
   1702   1704     1   0.10969 276646.080000
   1705   1706     1   0.10969 276646.080000
   1705   1707     1   0.10969 276646.080000
   1710   1739     1   0.10304 312293.760000
   1711   1712     1   0.10910 283424.160000
   1711   1713     1   0.10910 283424.160000
   1714   1715     1   0.10910 283424.160000
   1714   1716     1   0.10910 283424.160000
   1717   1718     1   0.10910 283424.160000
   1717   1719     1   0.10910 283424.160000
   1720   1721     1   0.10969 276646.080000
   1720   1722     1   0.10969 276646.080000
   1723   1724     1   0.10969 276646.080000
   1723   1725     1   0.10969 276646.080000
   1726   1727     1   0.10969 276646.080000
   1726   1728     1   0.10969 276646.080000
   1729   1730     1   0.10969 276646.080000
   1729   1731     1   0.10969 276646.080000
   1732   1733     1   0.10969 276646.080000
   1732   1734     1   0.10969 276646.080000
   1735   1736     1   0.10969 276646.080000
   1735   1737     1   0.10969 276646.080000
   1740   1769     1   0.10304 312293.760000
   1741   1742     1   0.10910 283424.160000
   1741   1743     1   0.10910 283424.160000
   1744   1745     1   0.10910 283424.160000
   1744   1746     1   0.10910 283424.160000
   1747   1748     1   0.10910 283424.160000
   1747   1749     1   0.10910 283424.160000
   1750   1751     1   0.10969 276646.080000
   1750   1752     1   0.10969 276646.080000
   1753   1754     1   0.10969 276646.080000
   1753   1755     1   0.10969 276646.080000
   1756   1757     1   0.10969 276646.080000
   1756   1758     1   0.10969 276646.080000
   1759   1760     1   0.10969 276646.080000
   1759   1761     1   0.10969 276646.080000
   1762   1763     1   0.10969 276646.080000
   1762   1764     1   0.10969 276646.080000
   1765   1766     1   0.10969 276646.080000
   1765   1767     1   0.10969 276646.080000
   1770   1799     1   0.10304 312293.760000
   1771   1772     1   0.10910 283424.160000
   1771   1773     1   0.10910 283424.160000
   1774   1775     1   0.10910 283424.160000
   1774   1776     1   0.10910 283424.160000
   1777   1778     1   0.10910 283424.160000
   1777   1779     1   0.10910 283424.160000
   1780   1781     1   0.10969 276646.080000
   1780   1782     1   0.10969 276646.080000
   1783   1784     1   0.10969 276646.080000
   1783   1785     1   0.10969 276646.080000
   1786   1787     1   0.10969 276646.080000
   1786   1788     1   0.10969 276646.080000
   1789   1790     1   0.10969 276646.080000
   1789   1791     1   0.10969 276646.080000
   1792   1793     1   0.10969 276646.080000
   1792   1794     1   0.10969 276646.080000
   1795   1796     1   0.10969 276646.080000
   1795   1797     1   0.10969 276646.080000
   1800   1829     1   0.10304 312293.760000
   1801   1802     1   0.10910 283424.160000
   1801   1803     1   0.10910 283424.160000
   1804   1805     1   0.10910 283424.160000
   1804   1806     1   0.10910 283424.160000
   1807   1808     1   0.10910 283424.160000
   1807   1809     1   0.10910 283424.160000
   1810   1811     1   0.10969 276646.080000
   1810   1812     1   0.10969 276646.080000
   1813   1814     1   0.10969 276646.080000
   1813   1815     1   0.10969 276646.080000
   1816   1817     1   0.10969 276646.080000
   1816   1818     1   0.10969 276646.080000
   1819   1820     1   0.10969 276646.080000
   1819   1821     1   0.10969 276646.080000
   1822   1823     1   0.10969 276646.080000
   1822   1824     1   0.10969 276646.080000
   1825   1826     1   0.10969 276646.080000
   1825   1827     1   0.10969 276646.080000
   1830   1859     1   0.10304 312293.760000
   1831   1832     1   0.10910 283424.160000
   1831   1833     1   0.10910 283424.160000
   1834   1835     1   0.10910 283424.160000
   1834   1836     1   0.10910 283424.160000
   1837   1838     1   0.10910 283424.160000
   1837   1839     1   0.10910 283424.160000
   1840   1841     1   0.10969 276646.080000
   1840   1842     1   0.10969 276646.080000
   1843   1844     1   0.10969 276646.080000
   1843   1845     1   0.10969 276646.080000
   1846   1847     1   0.10969 276646.080000
   1846   1848     1   0.10969 276646.080000
   1849   1850     1   0.10969 276646.080000
   1849   1851     1   0.10969 276646.080000
   1852   1853     1   0.10969 276646.080000
   1852   1854     1   0.10969 276646.080000
   1855   1856     1   0.10969 276646.080000
   1855   1857     1   0.10969 276646.080000
   1860   1861     1   0.10910 283424.160000
   1860   1862     1   0.10910 283424.160000
   1863   1864     1   0.10969 276646.080000
   1863   1865     1   0.10969 276646.080000
   1866   1867     1   0.10969 276646.080000
   1866   1868     1   0.10969 276646.080000
   1869   1870     1   0.10304 312293.760000
   1869   1871     1   0.10304 312293.760000
   1869   1873     1   0.10304 312293.760000
   1874   1875     1   0.10910 283424.160000
   1874   1876     1   0.10910 283424.160000
   1877   1878     1   0.10969 276646.080000
   1877   1879     1   0.10969 276646.080000
   1880   1881     1   0.10969 276646.080000
   1880   1882     1   0.10969 276646.080000
   1883   1884     1   0.10304 312293.760000
   1883   1885     1   0.10304 312293.760000
   1883   1887     1   0.10304 312293.760000
   1888   1889     1   0.10910 283424.160000
   1888   1890     1   0.10910 283424.160000
   1891   1892     1   0.10969 276646.080000
   1891   1893     1   0.10969 276646.080000
   1894   1895     1   0.10969 276646.080000
   1894   1896     1   0.10969 276646.080000
   1897   1898     1   0.10304 312293.760000
   1897   1899     1   0.10304 312293.760000
   1897   1901     1   0.10304 312293.760000
   1902   1903     1   0.10910 283424.160000
   1902   1904     1   0.10910 283424.160000
   1905   1906     1   0.10969 276646.080000
   1905   1907     1   0.10969 276646.080000
   1908   1909     1   0.10969 276646.080000
   1908   1910     1   0.10969 276646.080000
   1911   1912     1   0.10304 312293.760000
   1911   1913     1   0.10304 312293.760000
   1911   1915     1   0.10304 312293.760000
   1916   1917     1   0.10910 283424.160000
   1916   1918     1   0.10910 283424.160000
   1919   1920     1   0.10969 276646.080000
   1919   1921     1   0.10969 276646.080000
   1922   1923     1   0.10969 276646.080000
   1922   1924     1   0.10969 276646.080000
   1925   1926     1   0.10304 312293.760000
   1925   1927     1   0.10304 312293.760000
   1925   1929     1   0.10304 312293.760000
   1930   1931     1   0.10910 283424.160000
   1930   1932     1   0.10910 283424.160000
   1933   1934     1   0.10969 276646.080000
   1933   1935     1   0.10969 276646.080000
   1936   1937     1   0.10969 276646.080000
   1936   1938     1   0.10969 276646.080000
   1939   1940     1   0.10304 312293.760000
   1939   1941     1   0.10304 312293.760000
   1939   1943     1   0.10304 312293.760000
   1944   1945     1   0.10910 283424.160000
   1944   1946     1   0.10910 283424.160000
   1947   1948     1   0.10969 276646.080000
   1947   1949     1   0.10969 276646.080000
   1950   1951     1   0.10969 276646.080000
   1950   1952     1   0.10969 276646.080000
   1953   1954     1   0.10304 312293.760000
   1953   1955     1   0.10304 312293.760000
   1953   1957     1   0.10304 312293.760000
   1958   1959     1   0.10910 283424.160000
   1958   1960     1   0.10910 283424.160000
   1961   1962     1   0.10969 276646.080000
   1961   1963     1   0.10969 276646.080000
   1964   1965     1   0.10969 276646.080000
   1964   1966     1   0.10969 276646.080000
   1967   1968     1   0.10304 312293.760000
   1967   1969     1   0.10304 312293.760000
   1967   1971     1   0.10304 312293.760000
   1972   1973     1   0.10910 283424.160000
   1972   1974     1   0.10910 283424.160000
   1975   1976     1   0.10969 276646.080000
   1975   1977     1   0.10969 276646.080000
   1978   1979     1   0.10969 276646.080000
   1978   1980     1   0.10969 276646.080000
   1981   1982     1   0.10304 312293.760000
   1981   1983     1   0.10304 312293.760000
   1981   1985     1   0.10304 312293.760000
   1986   1987     1   0.10910 283424.160000
   1986   1988     1   0.10910 283424.160000
   1989   1990     1   0.10969 276646.080000
   1989   1991     1   0.10969 276646.080000
   1992   1993     1   0.10969 276646.080000
   1992   1994     1   0.10969 276646.080000
   1995   1996     1   0.10304 312293.760000
   1995   1997     1   0.10304 312293.760000
   1995   1999     1   0.10304 312293.760000
   2000   2001     1   0.10910 283424.160000
   2000   2002     1   0.10910 283424.160000
   2003   2004     1   0.10969 276646.080000
   2003   2005     1   0.10969 276646.080000
   2006   2007     1   0.10969 276646.080000
   2006   2008     1   0.10969 276646.080000
   2009   2010     1   0.10304 312293.760000
   2009   2011     1   0.10304 312293.760000
   2009   2013     1   0.10304 312293.760000
   2014   2015     1   0.10910 283424.160000
   2014   2016     1   0.10910 283424.160000
   2017   2018     1   0.10969 276646.080000
   2017   2019     1   0.10969 276646.080000
   2020   2021     1   0.10969 276646.080000
   2020   2022     1   0.10969 276646.080000
   2023   2024     1   0.10304 312293.760000
   2023   2025     1   0.10304 312293.760000
   2023   2027     1   0.10304 312293.760000
   2028   2029     1   0.10910 283424.160000
   2028   2030     1   0.10910 283424.160000
   2031   2032     1   0.10969 276646.080000
   2031   2033     1   0.10969 276646.080000
   2034   2035     1   0.10969 276646.080000
   2034   2036     1   0.10969 276646.080000
   2037   2038     1   0.10304 312293.760000
   2037   2039     1   0.10304 312293.760000
   2037   2041     1   0.10304 312293.760000
   2042   2043     1   0.10910 283424.160000
   2042   2044     1   0.10910 283424.160000
   2045   2046     1   0.10969 276646.080000
   2045   2047     1   0.10969 276646.080000
   2048   2049     1   0.10969 276646.080000
   2048   2050     1   0.10969 276646.080000
   2051   2052     1   0.10304 312293.760000
   2051   2053     1   0.10304 312293.760000
   2051   2055     1   0.10304 312293.760000
   2056   2057     1   0.10910 283424.160000
   2056   2058     1   0.10910 283424.160000
   2059   2060     1   0.10969 276646.080000
   2059   2061     1   0.10969 276646.080000
   2062   2063     1   0.10969 276646.080000
   2062   2064     1   0.10969 276646.080000
   2065   2066     1   0.10304 312293.760000
   2065   2067     1   0.10304 312293.760000
   2065   2069     1   0.10304 312293.760000
   2070   2071     1   0.10910 283424.160000
   2070   2072     1   0.10910 283424.160000
   2073   2074     1   0.10969 276646.080000
   2073   2075     1   0.10969 276646.080000
   2076   2077     1   0.10969 276646.080000
   2076   2078     1   0.10969 276646.080000
   2079   2080     1   0.10304 312293.760000
   2079   2081     1   0.10304 312293.760000
   2079   2083     1   0.10304 312293.760000
   2084   2085     1   0.10910 283424.160000
   2084   2086     1   0.10910 283424.160000
   2087   2088     1   0.10969 276646.080000
   2087   2089     1   0.10969 276646.080000
   2090   2091     1   0.10969 276646.080000
   2090   2092     1   0.10969 276646.080000
   2093   2094     1   0.10304 312293.760000
   2093   2095     1   0.10304 312293.760000
   2093   2097     1   0.10304 312293.760000
   2098   2099     1   0.10910 283424.160000
   2098   2100     1   0.10910 283424.160000
   2101   2102     1   0.10969 276646.080000
   2101   2103     1   0.10969 276646.080000
   2104   2105     1   0.10969 276646.080000
   2104   2106     1   0.10969 276646.080000
   2107   2108     1   0.10304 312293.760000
   2107   2109     1   0.10304 312293.760000
   2107   2111     1   0.10304 312293.760000
   2112   2113     1   0.10910 283424.160000
   2112   2114     1   0.10910 283424.160000
   2115   2116     1   0.10969 276646.080000
   2115   2117     1   0.10969 276646.080000
   2118   2119     1   0.10969 276646.080000
   2118   2120     1   0.10969 276646.080000
   2121   2122     1   0.10304 312293.760000
   2121   2123     1   0.10304 312293.760000
   2121   2125     1   0.10304 312293.760000
   2126   2127     1   0.10910 283424.160000
   2126   2128     1   0.10910 283424.160000
   2129   2130     1   0.10969 276646.080000
   2129   2131     1   0.10969 276646.080000
   2132   2133     1   0.10969 276646.080000
   2132   2134     1   0.10969 276646.080000
   2135   2136     1   0.10304 312293.760000
   2135   2137     1   0.10304 312293.760000
   2135   2139     1   0.10304 312293.760000
   2140   2141     1   0.10910 283424.160000
   2140   2142     1   0.10910 283424.160000
   2143   2144     1   0.10969 276646.080000
   2143   2145     1   0.10969 276646.080000
   2146   2147     1   0.10969 276646.080000
   2146   2148     1   0.10969 276646.080000
   2149   2150     1   0.10304 312293.760000
   2149   2151     1   0.10304 312293.760000
   2149   2153     1   0.10304 312293.760000
   2154   2155     1   0.10910 283424.160000
   2154   2156     1   0.10910 283424.160000
   2157   2158     1   0.10969 276646.080000
   2157   2159     1   0.10969 276646.080000
   2160   2161     1   0.10969 276646.080000
   2160   2162     1   0.10969 276646.080000
   2163   2164     1   0.10304 312293.760000
   2163   2165     1   0.10304 312293.760000
   2163   2167     1   0.10304 312293.760000
   2168   2169     1   0.10910 283424.160000
   2168   2170     1   0.10910 283424.160000
   2171   2172     1   0.10969 276646.080000
   2171   2173     1   0.10969 276646.080000
   2174   2175     1   0.10969 276646.080000
   2174   2176     1   0.10969 276646.080000
   2177   2178     1   0.10304 312293.760000
   2177   2179     1   0.10304 312293.760000
   2177   2181     1   0.10304 312293.760000
   2182   2183     1   0.10910 283424.160000
   2182   2184     1   0.10910 283424.160000
   2185   2186     1   0.10969 276646.080000
   2185   2187     1   0.10969 276646.080000
   2188   2189     1   0.10969 276646.080000
   2188   2190     1   0.10969 276646.080000
   2191   2192     1   0.10304 312293.760000
   2191   2193     1   0.10304 312293.760000
   2191   2195     1   0.10304 312293.760000
   2196   2197     1   0.10910 283424.160000
   2196   2198     1   0.10910 283424.160000
   2199   2200     1   0.10969 276646.080000
   2199   2201     1   0.10969 276646.080000
   2202   2203     1   0.10969 276646.080000
   2202   2204     1   0.10969 276646.080000
   2205   2206     1   0.10304 312293.760000
   2205   2207     1   0.10304 312293.760000
   2205   2209     1   0.10304 312293.760000
   2210   2211     1   0.10910 283424.160000
   2210   2212     1   0.10910 283424.160000
   2213   2214     1   0.10969 276646.080000
   2213   2215     1   0.10969 276646.080000
   2216   2217     1   0.10969 276646.080000
   2216   2218     1   0.10969 276646.080000
   2219   2220     1   0.10304 312293.760000
   2219   2221     1   0.10304 312293.760000
   2219   2223     1   0.10304 312293.760000
   2224   2225     1   0.10910 283424.160000
   2224   2226     1   0.10910 283424.160000
   2227   2228     1   0.10969 276646.080000
   2227   2229     1   0.10969 276646.080000
   2230   2231     1   0.10969 276646.080000
   2230   2232     1   0.10969 276646.080000
   2233   2234     1   0.10304 312293.760000
   2233   2235     1   0.10304 312293.760000
   2233   2237     1   0.10304 312293.760000
   2238   2239     1   0.10910 283424.160000
   2238   2240     1   0.10910 283424.160000
   2241   2242     1   0.10969 276646.080000
   2241   2243     1   0.10969 276646.080000
   2244   2245     1   0.10969 276646.080000
   2244   2246     1   0.10969 276646.080000
   2247   2248     1   0.10304 312293.760000
   2247   2249     1   0.10304 312293.760000
   2247   2251     1   0.10304 312293.760000
   2252   2253     1   0.10910 283424.160000
   2252   2254     1   0.10910 283424.160000
   2255   2256     1   0.10969 276646.080000
   2255   2257     1   0.10969 276646.080000
   2258   2259     1   0.10969 276646.080000
   2258   2260     1   0.10969 276646.080000
   2261   2262     1   0.10304 312293.760000
   2261   2263     1   0.10304 312293.760000
   2261   2265     1   0.10304 312293.760000
   2266   2267     1   0.10910 283424.160000
   2266   2268     1   0.10910 283424.160000
   2269   2270     1   0.10969 276646.080000
   2269   2271     1   0.10969 276646.080000
   2272   2273     1   0.10969 276646.080000
   2272   2274     1   0.10969 276646.080000
   2275   2276     1   0.10304 312293.760000
   2275   2277     1   0.10304 312293.760000
   2275   2279     1   0.10304 312293.760000
   2280   2281     1   0.10910 283424.160000
   2280   2282     1   0.10910 283424.160000
   2283   2284     1   0.10969 276646.080000
   2283   2285     1   0.10969 276646.080000
   2286   2287     1   0.10969 276646.080000
   2286   2288     1   0.10969 276646.080000
   2289   2290     1   0.10304 312293.760000
   2289   2291     1   0.10304 312293.760000
   2289   2293     1   0.10304 312293.760000
   2294   2295     1   0.10910 283424.160000
   2294   2296     1   0.10910 283424.160000
   2297   2298     1   0.10969 276646.080000
   2297   2299     1   0.10969 276646.080000
   2300   2301     1   0.10969 276646.080000
   2300   2302     1   0.10969 276646.080000
   2303   2304     1   0.10304 312293.760000
   2303   2305     1   0.10304 312293.760000
   2303   2307     1   0.10304 312293.760000
   2308   2309     1   0.10910 283424.160000
   2308   2310     1   0.10910 283424.160000
   2311   2312     1   0.10969 276646.080000
   2311   2313     1   0.10969 276646.080000
   2314   2315     1   0.10969 276646.080000
   2314   2316     1   0.10969 276646.080000
   2317   2318     1   0.10304 312293.760000
   2317   2319     1   0.10304 312293.760000
   2317   2321     1   0.10304 312293.760000
   2322   2323     1   0.10910 283424.160000
   2322   2324     1   0.10910 283424.160000
   2325   2326     1   0.10969 276646.080000
   2325   2327     1   0.10969 276646.080000
   2328   2329     1   0.10969 276646.080000
   2328   2330     1   0.10969 276646.080000
   2331   2332     1   0.10304 312293.760000
   2331   2333     1   0.10304 312293.760000
   2331   2335     1   0.10304 312293.760000
   2336   2337     1   0.10910 283424.160000
   2336   2338     1   0.10910 283424.160000
   2339   2340     1   0.10969 276646.080000
   2339   2341     1   0.10969 276646.080000
   2342   2343     1   0.10969 276646.080000
   2342   2344     1   0.10969 276646.080000
   2345   2346     1   0.10304 312293.760000
   2345   2347     1   0.10304 312293.760000
   2345   2349     1   0.10304 312293.760000
   2350   2351     1   0.10910 283424.160000
   2350   2352     1   0.10910 283424.160000
   2353   2354     1   0.10969 276646.080000
   2353   2355     1   0.10969 276646.080000
   2356   2357     1   0.10969 276646.080000
   2356   2358     1   0.10969 276646.080000
   2359   2360     1   0.10304 312293.760000
   2359   2361     1   0.10304 312293.760000
   2359   2363     1   0.10304 312293.760000
   2364   2365     1   0.10910 283424.160000
   2364   2366     1   0.10910 283424.160000
   2367   2368     1   0.10969 276646.080000
   2367   2369     1   0.10969 276646.080000
   2370   2371     1   0.10969 276646.080000
   2370   2372     1   0.10969 276646.080000
   2373   2374     1   0.10304 312293.760000
   2373   2375     1   0.10304 312293.760000
   2373   2377     1   0.10304 312293.760000
   2378   2379     1   0.10910 283424.160000
   2378   2380     1   0.10910 283424.160000
   2381   2382     1   0.10969 276646.080000
   2381   2383     1   0.10969 276646.080000
   2384   2385     1   0.10969 276646.080000
   2384   2386     1   0.10969 276646.080000
   2387   2388     1   0.10304 312293.760000
   2387   2389     1   0.10304 312293.760000
   2387   2391     1   0.10304 312293.760000
   2392   2393     1   0.10910 283424.160000
   2392   2394     1   0.10910 283424.160000
   2395   2396     1   0.10969 276646.080000
   2395   2397     1   0.10969 276646.080000
   2398   2399     1   0.10969 276646.080000
   2398   2400     1   0.10969 276646.080000
   2401   2402     1   0.10304 312293.760000
   2401   2403     1   0.10304 312293.760000
   2401   2405     1   0.10304 312293.760000
   2406   2407     1   0.10910 283424.160000
   2406   2408     1   0.10910 283424.160000
   2409   2410     1   0.10969 276646.080000
   2409   2411     1   0.10969 276646.080000
   2412   2413     1   0.10969 276646.080000
   2412   2414     1   0.10969 276646.080000
   2415   2416     1   0.10304 312293.760000
   2415   2417     1   0.10304 312293.760000
   2415   2419     1   0.10304 312293.760000
   2420   2421     1   0.10910 283424.160000
   2420   2422     1   0.10910 283424.160000
   2423   2424     1   0.10969 276646.080000
   2423   2425     1   0.10969 276646.080000
   2426   2427     1   0.10969 276646.080000
   2426   2428     1   0.10969 276646.080000
   2429   2430     1   0.10304 312293.760000
   2429   2431     1   0.10304 312293.760000
   2429   2433     1   0.10304 312293.760000
   2434   2435     1   0.10910 283424.160000
   2434   2436     1   0.10910 283424.160000
   2437   2438     1   0.10969 276646.080000
   2437   2439     1   0.10969 276646.080000
   2440   2441     1   0.10969 276646.080000
   2440   2442     1   0.10969 276646.080000
   2443   2444     1   0.10304 312293.760000
   2443   2445     1   0.10304 312293.760000
   2443   2447     1   0.10304 312293.760000
   2448   2449     1   0.10910 283424.160000
   2448   2450     1   0.10910 283424.160000
   2451   2452     1   0.10969 276646.080000
   2451   2453     1   0.10969 276646.080000
   2454   2455     1   0.10969 276646.080000
   2454   2456     1   0.10969 276646.080000
   2457   2458     1   0.10304 312293.760000
   2457   2459     1   0.10304 312293.760000
   2457   2461     1   0.10304 312293.760000
   2462   2463     1   0.10910 283424.160000
   2462   2464     1   0.10910 283424.160000
   2465   2466     1   0.10969 276646.080000
   2465   2467     1   0.10969 276646.080000
   2468   2469     1   0.10969 276646.080000
   2468   2470     1   0.10969 276646.080000
   2471   2472     1   0.10304 312293.760000
   2471   2473     1   0.10304 312293.760000
   2471   2475     1   0.10304 312293.760000
   2476   2477     1   0.10910 283424.160000
   2476   2478     1   0.10910 283424.160000
   2479   2480     1   0.10969 276646.080000
   2479   2481     1   0.10969 276646.080000
   2482   2483     1   0.10969 276646.080000
   2482   2484     1   0.10969 276646.080000
   2485   2486     1   0.10304 312293.760000
   2485   2487     1   0.10304 312293.760000
   2485   2489     1   0.10304 312293.760000
   2490   2491     1   0.10910 283424.160000
   2490   2492     1   0.10910 283424.160000
   2493   2494     1   0.10969 276646.080000
   2493   2495     1   0.10969 276646.080000
   2496   2497     1   0.10969 276646.080000
   2496   2498     1   0.10969 276646.080000
   2499   2500     1   0.10304 312293.760000
   2499   2501     1   0.10304 312293.760000
   2499   2503     1   0.10304 312293.760000
   2504   2505     1   0.10910 283424.160000
   2504   2506     1   0.10910 283424.160000
   2507   2508     1   0.10969 276646.080000
   2507   2509     1   0.10969 276646.080000
   2510   2511     1   0.10969 276646.080000
   2510   2512     1   0.10969 276646.080000
   2513   2514     1   0.10304 312293.760000
   2513   2515     1   0.10304 312293.760000
   2513   2517     1   0.10304 312293.760000
   2518   2519     1   0.10910 283424.160000
   2518   2520     1   0.10910 283424.160000
   2521   2522     1   0.10969 276646.080000
   2521   2523     1   0.10969 276646.080000
   2524   2525     1   0.10969 276646.080000
   2524   2526     1   0.10969 276646.080000
   2527   2528     1   0.10304 312293.760000
   2527   2529     1   0.10304 312293.760000
   2527   2531     1   0.10304 312293.760000
   2532   2533     1   0.10910 283424.160000
   2532   2534     1   0.10910 283424.160000
   2535   2536     1   0.10969 276646.080000
   2535   2537     1   0.10969 276646.080000
   2538   2539     1   0.10969 276646.080000
   2538   2540     1   0.10969 276646.080000
   2541   2542     1   0.10304 312293.760000
   2541   2543     1   0.10304 312293.760000
   2541   2545     1   0.10304 312293.760000
   2546   2547     1   0.10910 283424.160000
   2546   2548     1   0.10910 283424.160000
   2549   2550     1   0.10969 276646.080000
   2549   2551     1   0.10969 276646.080000
   2552   2553     1   0.10969 276646.080000
   2552   2554     1   0.10969 276646.080000
   2555   2556     1   0.10304 312293.760000
   2555   2557     1   0.10304 312293.760000
   2555   2559     1   0.10304 312293.760000
   2560   2561     1   0.10910 283424.160000
   2560   2562     1   0.10910 283424.160000
   2563   2564     1   0.10969 276646.080000
   2563   2565     1   0.10969 276646.080000
   2566   2567     1   0.10969 276646.080000
   2566   2568     1   0.10969 276646.080000
   2569   2570     1   0.10304 312293.760000
   2569   2571     1   0.10304 312293.760000
   2569   2573     1   0.10304 312293.760000
   2574   2575     1   0.10910 283424.160000
   2574   2576     1   0.10910 283424.160000
   2577   2578     1   0.10969 276646.080000
   2577   2579     1   0.10969 276646.080000
   2580   2581     1   0.10969 276646.080000
   2580   2582     1   0.10969 276646.080000
   2583   2584     1   0.10304 312293.760000
   2583   2585     1   0.10304 312293.760000
   2583   2587     1   0.10304 312293.760000
   2588   2589     1   0.10910 283424.160000
   2588   2590     1   0.10910 283424.160000
   2591   2592     1   0.10969 276646.080000
   2591   2593     1   0.10969 276646.080000
   2594   2595     1   0.10969 276646.080000
   2594   2596     1   0.10969 276646.080000
   2597   2598     1   0.10304 312293.760000
   2597   2599     1   0.10304 312293.760000
   2597   2601     1   0.10304 312293.760000
   2602   2603     1   0.10910 283424.160000
   2602   2604     1   0.10910 283424.160000
   2605   2606     1   0.10969 276646.080000
   2605   2607     1   0.10969 276646.080000
   2608   2609     1   0.10969 276646.080000
   2608   2610     1   0.10969 276646.080000
   2611   2612     1   0.10304 312293.760000
   2611   2613     1   0.10304 312293.760000
   2611   2615     1   0.10304 312293.760000
   2616   2617     1   0.10910 283424.160000
   2616   2618     1   0.10910 283424.160000
   2619   2620     1   0.10969 276646.080000
   2619   2621     1   0.10969 276646.080000
   2622   2623     1   0.10969 276646.080000
   2622   2624     1   0.10969 276646.080000
   2625   2626     1   0.10304 312293.760000
   2625   2627     1   0.10304 312293.760000
   2625   2629     1   0.10304 312293.760000
   2630   2631     1   0.10910 283424.160000
   2630   2632     1   0.10910 283424.160000
   2633   2634     1   0.10969 276646.080000
   2633   2635     1   0.10969 276646.080000
   2636   2637     1   0.10969 276646.080000
   2636   2638     1   0.10969 276646.080000
   2639   2640     1   0.10304 312293.760000
   2639   2641     1   0.10304 312293.760000
   2639   2643     1   0.10304 312293.760000
   2644   2645     1   0.10910 283424.160000
   2644   2646     1   0.10910 283424.160000
   2647   2648     1   0.10969 276646.080000
   2647   2649     1   0.10969 276646.080000
   2650   2651     1   0.10969 276646.080000
   2650   2652     1   0.10969 276646.080000
   2653   2654     1   0.10304 312293.760000
   2653   2655     1   0.10304 312293.760000
   2653   2657     1   0.10304 312293.760000
   2658   2659     1   0.10910 283424.160000
   2658   2660     1   0.10910 283424.160000
   2661   2662     1   0.10969 276646.080000
   2661   2663     1   0.10969 276646.080000
   2664   2665     1   0.10969 276646.080000
   2664   2666     1   0.10969 276646.080000
   2667   2668     1   0.10304 312293.760000
   2667   2669     1   0.10304 312293.760000
   2667   2671     1   0.10304 312293.760000
   2672   2673     1   0.10910 283424.160000
   2672   2674     1   0.10910 283424.160000
   2675   2676     1   0.10969 276646.080000
   2675   2677     1   0.10969 276646.080000
   2678   2679     1   0.10969 276646.080000
   2678   2680     1   0.10969 276646.080000
   2681   2682     1   0.10304 312293.760000
   2681   2683     1   0.10304 312293.760000
   2681   2685     1   0.10304 312293.760000
   2686   2687     1   0.10910 283424.160000
   2686   2688     1   0.10910 283424.160000
   2689   2690     1   0.10969 276646.080000
   2689   2691     1   0.10969 276646.080000
   2692   2693     1   0.10969 276646.080000
   2692   2694     1   0.10969 276646.080000
   2695   2696     1   0.10304 312293.760000
   2695   2697     1   0.10304 312293.760000
   2695   2699     1   0.10304 312293.760000
   2700   2701     1   0.10910 283424.160000
   2700   2702     1   0.10910 283424.160000
   2703   2704     1   0.10969 276646.080000
   2703   2705     1   0.10969 276646.080000
   2706   2707     1   0.10969 276646.080000
   2706   2708     1   0.10969 276646.080000
   2709   2710     1   0.10304 312293.760000
   2709   2711     1   0.10304 312293.760000
   2709   2713     1   0.10304 312293.760000
   2714   2715     1   0.10910 283424.160000
   2714   2716     1   0.10910 283424.160000
   2717   2718     1   0.10969 276646.080000
   2717   2719     1   0.10969 276646.080000
   2720   2721     1   0.10969 276646.080000
   2720   2722     1   0.10969 276646.080000
   2723   2724     1   0.10304 312293.760000
   2723   2725     1   0.10304 312293.760000
   2723   2727     1   0.10304 312293.760000
   2728   2729     1   0.10910 283424.160000
   2728   2730     1   0.10910 283424.160000
   2731   2732     1   0.10969 276646.080000
   2731   2733     1   0.10969 276646.080000
   2734   2735     1   0.10969 276646.080000
   2734   2736     1   0.10969 276646.080000
   2737   2738     1   0.10304 312293.760000
   2737   2739     1   0.10304 312293.760000
   2737   2741     1   0.10304 312293.760000
   2742   2743     1   0.10910 283424.160000
   2742   2744     1   0.10910 283424.160000
   2745   2746     1   0.10969 276646.080000
   2745   2747     1   0.10969 276646.080000
   2748   2749     1   0.10969 276646.080000
   2748   2750     1   0.10969 276646.080000
   2751   2752     1   0.10304 312293.760000
   2751   2753     1   0.10304 312293.760000
   2751   2755     1   0.10304 312293.760000

[ pairs ]
;    ai     aj funct         c0         c1         c2         c3
      1     14     1
      1     17     1
      2     11     1
      2     20     1
      5      8     1
      5     21     1
      8     28     1
      8     31     1
     11     22     1
     11     25     1
     14     40     1
     14     43     1
     17     34     1
     17     37     1
     20     49     1
     20     46     1
     21     55     1
     21     52     1
     22     37     1
     22    178     1
     25     34     1
     25    148     1
     28     43     1
     28    118     1
     31     40     1
     31     88     1
     34    169     1
     37    139     1
     40    109     1
     43     79     1
     46     70     1
     49    100     1
     52    130     1
     55    160     1
     60     85     1
     60     82     1
     60     79     1
     61     76     1
     61     70     1
     61    238     1
     64     73     1
     64     70     1
     64    208     1
     67     73     1
     67     76     1
     67     88     1
     73    229     1
     76    199     1
     82    190     1
     85    220     1
     90    115     1
     90    112     1
     90    109     1
     91    106     1
     91    100     1
     91    298     1
     94    103     1
     94    100     1
     94    268     1
     97    103     1
     97    106     1
     97    118     1
    103    289     1
    106    259     1
    112    250     1
    115    280     1
    120    145     1
    120    142     1
    120    139     1
    121    136     1
    121    130     1
    121    358     1
    124    133     1
    124    130     1
    124    328     1
    127    133     1
    127    136     1
    127    148     1
    133    349     1
    136    319     1
    142    310     1
    145    340     1
    150    175     1
    150    172     1
    150    169     1
    151    166     1
    151    160     1
    151    418     1
    154    163     1
    154    160     1
    154    388     1
    157    163     1
    157    166     1
    157    178     1
    163    409     1
    166    379     1
    172    370     1
    175    400     1
    180    205     1
    180    202     1
    180    199     1
    181    196     1
    181    190     1
    181    478     1
    184    193     1
    184    190     1
    184    448     1
    187    193     1
    187    196     1
    187    208     1
    193    469     1
    196    439     1
    202    430     1
    205    460     1
    210    235     1
    210    232     1
    210    229     1
    211    226     1
    211    220     1
    211    538     1
    214    223     1
    214    220     1
    214    508     1
    217    223     1
    217    226     1
    217    238     1
    223    529     1
    226    499     1
    232    490     1
    235    520     1
    240    265     1
    240    262     1
    240    259     1
    241    256     1
    241    250     1
    241    598     1
    244    253     1
    244    250     1
    244    568     1
    247    253     1
    247    256     1
    247    268     1
    253    589     1
    256    559     1
    262    550     1
    265    580     1
    270    295     1
    270    292     1
    270    289     1
    271    286     1
    271    280     1
    271    658     1
    274    283     1
    274    280     1
    274    628     1
    277    283     1
    277    286     1
    277    298     1
    283    649     1
    286    619     1
    292    610     1
    295    640     1
    300    325     1
    300    322     1
    300    319     1
    301    316     1
    301    310     1
    301    718     1
    304    313     1
    304    310     1
    304    688     1
    307    313     1
    307    316     1
    307    328     1
    313    709     1
    316    679     1
    322    670     1
    325    700     1
    330    355     1
    330    352     1
    330    349     1
    331    346     1
    331    340     1
    331    778     1
    334    343     1
    334    340     1
    334    748     1
    337    343     1
    337    346     1
    337    358     1
    343    769     1
    346    739     1
    352    730     1
    355    760     1
    360    385     1
    360    382     1
    360    379     1
    361    376     1
    361    370     1
    361    838     1
    364    373     1
    364    370     1
    364    808     1
    367    373     1
    367    376     1
    367    388     1
    373    829     1
    376    799     1
    382    790     1
    385    820     1
    390    415     1
    390    412     1
    390    409     1
    391    406     1
    391    400     1
    391    898     1
    394    403     1
    394    400     1
    394    868     1
    397    403     1
    397    406     1
    397    418     1
    403    889     1
    406    859     1
    412    850     1
    415    880     1
    420    445     1
    420    442     1
    420    439     1
    421    436     1
    421    430     1
    421    958     1
    424    433     1
    424    430     1
    424    928     1
    427    433     1
    427    436     1
    427    448     1
    433    949     1
    436    919     1
    442    910     1
    445    940     1
    450    475     1
    450    472     1
    450    469     1
    451    466     1
    451    460     1
    451   1018     1
    454    463     1
    454    460     1
    454    988     1
    457    463     1
    457    466     1
    457    478     1
    463   1009     1
    466    979     1
    472    970     1
    475   1000     1
    480    505     1
    480    502     1
    480    499     1
    481    496     1
    481    490     1
    481   1078     1
    484    493     1
    484    490     1
    484   1048     1
    487    493     1
    487    496     1
    487    508     1
    493   1069     1
    496   1039     1
    502   1030     1
    505   1060     1
    510    535     1
    510    532     1
    510    529     1
    511    526     1
    511    520     1
    511   1138     1
    514    523     1
    514    520     1
    514   1108     1
    517    523     1
    517    526     1
    517    538     1
    523   1129     1
    526   1099     1
    532   1090     1
    535   1120     1
    540    565     1
    540    562     1
    540    559     1
    541    556     1
    541    550     1
    541   1198     1
    544    553     1
    544    550     1
    544   1168     1
    547    553     1
    547    556     1
    547    568     1
    553   1189     1
    556   1159     1
    562   1150     1
    565   1180     1
    570    595     1
    570    592     1
    570    589     1
    571    586     1
    571    580     1
    571   1258     1
    574    583     1
    574    580     1
    574   1228     1
    577    583     1
    577    586     1
    577    598     1
    583   1249     1
    586   1219     1
    592   1210     1
    595   1240     1
    600    625     1
    600    622     1
    600    619     1
    601    616     1
    601    610     1
    601   1318     1
    604    613     1
    604    610     1
    604   1288     1
    607    613     1
    607    616     1
    607    628     1
    613   1309     1
    616   1279     1
    622   1270     1
    625   1300     1
    630    655     1
    630    652     1
    630    649     1
    631    646     1
    631    640     1
    631   1378     1
    634    643     1
    634    640     1
    634   1348     1
    637    643     1
    637    646     1
    637    658     1
    643   1369     1
    646   1339     1
    652   1330     1
    655   1360     1
    660    685     1
    660    682     1
    660    679     1
    661    676     1
    661    670     1
    661   1438     1
    664    673     1
    664    670     1
    664   1408     1
    667    673     1
    667    676     1
    667    688     1
    673   1429     1
    676   1399     1
    682   1390     1
    685   1420     1
    690    715     1
    690    712     1
    690    709     1
    691    706     1
    691    700     1
    691   1498     1
    694    703     1
    694    700     1
    694   1468     1
    697    703     1
    697    706     1
    697    718     1
    703   1489     1
    706   1459     1
    712   1450     1
    715   1480     1
    720    745     1
    720    742     1
    720    739     1
    721    736     1
    721    730     1
    721   1558     1
    724    733     1
    724    730     1
    724   1528     1
    727    733     1
    727    736     1
    727    748     1
    733   1549     1
    736   1519     1
    742   1510     1
    745   1540     1
    750    775     1
    750    772     1
    750    769     1
    751    766     1
    751    760     1
    751   1618     1
    754    763     1
    754    760     1
    754   1588     1
    757    763     1
    757    766     1
    757    778     1
    763   1609     1
    766   1579     1
    772   1570     1
    775   1600     1
    780    805     1
    780    802     1
    780    799     1
    781    796     1
    781    790     1
    781   1678     1
    784    793     1
    784    790     1
    784   1648     1
    787    793     1
    787    796     1
    787    808     1
    793   1669     1
    796   1639     1
    802   1630     1
    805   1660     1
    810    835     1
    810    832     1
    810    829     1
    811    826     1
    811    820     1
    811   1738     1
    814    823     1
    814    820     1
    814   1708     1
    817    823     1
    817    826     1
    817    838     1
    823   1729     1
    826   1699     1
    832   1690     1
    835   1720     1
    840    865     1
    840    862     1
    840    859     1
    841    856     1
    841    850     1
    841   1798     1
    844    853     1
    844    850     1
    844   1768     1
    847    853     1
    847    856     1
    847    868     1
    853   1789     1
    856   1759     1
    862   1750     1
    865   1780     1
    870    895     1
    870    892     1
    870    889     1
    871    886     1
    871    880     1
    871   1858     1
    874    883     1
    874    880     1
    874   1828     1
    877    883     1
    877    886     1
    877    898     1
    883   1849     1
    886   1819     1
    892   1810     1
    895   1840     1
    900    925     1
    900    922     1
    900    919     1
    901    916     1
    901    910     1
    901   1886     1
    904    913     1
    904    910     1
    904   1872     1
    907    913     1
    907    916     1
    907    928     1
    913   1880     1
    916   1866     1
    922   1863     1
    925   1877     1
    930    955     1
    930    952     1
    930    949     1
    931    946     1
    931    940     1
    931   1914     1
    934    943     1
    934    940     1
    934   1900     1
    937    943     1
    937    946     1
    937    958     1
    943   1908     1
    946   1894     1
    952   1891     1
    955   1905     1
    960    985     1
    960    982     1
    960    979     1
    961    976     1
    961    970     1
    961   1942     1
    964    973     1
    964    970     1
    964   1928     1
    967    973     1
    967    976     1
    967    988     1
    973   1936     1
    976   1922     1
    982   1919     1
    985   1933     1
    990   1015     1
    990   1012     1
    990   1009     1
    991   1006     1
    991   1000     1
    991   1970     1
    994   1003     1
    994   1000     1
    994   1956     1
    997   1003     1
    997   1006     1
    997   1018     1
   1003   1964     1
   1006   1950     1
   1012   1947     1
   1015   1961     1
   1020   1045     1
   1020   1042     1
   1020   1039     1
   1021   1036     1
   1021   1030     1
   1021   1998     1
   1024   1033     1
   1024   1030     1
   1024   1984     1
   1027   1033     1
   1027   1036     1
   1027   1048     1
   1033   1992     1
   1036   1978     1
   1042   1975     1
   1045   1989     1
   1050   1075     1
   1050   1072     1
   1050   1069     1
   1051   1066     1
   1051   1060     1
   1051   2026     1
   1054   1063     1
   1054   1060     1
   1054   2012     1
   1057   1063     1
   1057   1066     1
   1057   1078     1
   1063   2020     1
   1066   2006     1
   1072   2003     1
   1075   2017     1
   1080   1105     1
   1080   1102     1
   1080   1099     1
   1081   1096     1
   1081   1090     1
   1081   2054     1
   1084   1093     1
   1084   1090     1
   1084   2040     1
   1087   1093     1
   1087   1096     1
   1087   1108     1
   1093   2048     1
   1096   2034     1
   1102   2031     1
   1105   2045     1
   1110   1135     1
   1110   1132     1
   1110   1129     1
   1111   1126     1
   1111   1120     1
   1111   2082     1
   1114   1123     1
   1114   1120     1
   1114   2068     1
   1117   1123     1
   1117   1126     1
   1117   1138     1
   1123   2076     1
   1126   2062     1
   1132   2059     1
   1135   2073     1
   1140   1165     1
   1140   1162     1
   1140   1159     1
   1141   1156     1
   1141   1150     1
   1141   2110     1
   1144   1153     1
   1144   1150     1
   1144   2096     1
   1147   1153     1
   1147   1156     1
   1147   1168     1
   1153   2104     1
   1156   2090     1
   1162   2087     1
   1165   2101     1
   1170   1195     1
   1170   1192     1
   1170   1189     1
   1171   1186     1
   1171   1180     1
   1171   2138     1
   1174   1183     1
   1174   1180     1
   1174   2124     1
   1177   1183     1
   1177   1186     1
   1177   1198     1
   1183   2132     1
   1186   2118     1
   1192   2115     1
   1195   2129     1
   1200   1225     1
   1200   1222     1
   1200   1219     1
   1201   1216     1
   1201   1210     1
   1201   2166     1
   1204   1213     1
   1204   1210     1
   1204   2152     1
   1207   1213     1
   1207   1216     1
   1207   1228     1
   1213   2160     1
   1216   2146     1
   1222   2143     1
   1225   2157     1
   1230   1255     1
   1230   1252     1
   1230   1249     1
   1231   1246     1
   1231   1240     1
   1231   2194     1
   1234   1243     1
   1234   1240     1
   1234   2180     1
   1237   1243     1
   1237   1246     1
   1237   1258     1
   1243   2188     1
   1246   2174     1
   1252   2171     1
   1255   2185     1
   1260   1285     1
   1260   1282     1
   1260   1279     1
   1261   1276     1
   1261   1270     1
   1261   2222     1
   1264   1273     1
   1264   1270     1
   1264   2208     1
   1267   1273     1
   1267   1276     1
   1267   1288     1
   1273   2216     1
   1276   2202     1
   1282   2199     1
   1285   2213     1
   1290   1315     1
   1290   1312     1
   1290   1309     1
   1291   1306     1
   1291   1300     1
   1291   2250     1
   1294   1303     1
   1294   1300     1
   1294   2236     1
   1297   1303     1
   1297   1306     1
   1297   1318     1
   1303   2244     1
   1306   2230     1
   1312   2227     1
   1315   2241     1
   1320   1345     1
   1320   1342     1
   1320   1339     1
   1321   1336     1
   1321   1330     1
   1321   2278     1
   1324   1333     1
   1324   1330     1
   1324   2264     1
   1327   1333     1
   1327   1336     1
   1327   1348     1
   1333   2272     1
   1336   2258     1
   1342   2255     1
   1345   2269     1
   1350   1375     1
   1350   1372     1
   1350   1369     1
   1351   1366     1
   1351   1360     1
   1351   2306     1
   1354   1363     1
   1354   1360     1
   1354   2292     1
   1357   1363     1
   1357   1366     1
   1357   1378     1
   1363   2300     1
   1366   2286     1
   1372   2283     1
   1375   2297     1
   1380   1405     1
   1380   1402     1
   1380   1399     1
   1381   1396     1
   1381   1390     1
   1381   2334     1
   1384   1393     1
   1384   1390     1
   1384   2320     1
   1387   1393     1
   1387   1396     1
   1387   1408     1
   1393   2328     1
   1396   2314     1
   1402   2311     1
   1405   2325     1
   1410   1435     1
   1410   1432     1
   1410   1429     1
   1411   1426     1
   1411   1420     1
   1411   2362     1
   1414   1423     1
   1414   1420     1
   1414   2348     1
   1417   1423     1
   1417   1426     1
   1417   1438     1
   1423   2356     1
   1426   2342     1
   1432   2339     1
   1435   2353     1
   1440   1465     1
   1440   1462     1
   1440   1459     1
   1441   1456     1
   1441   1450     1
   1441   2390     1
   1444   1453     1
   1444   1450     1
   1444   2376     1
   1447   1453     1
   1447   1456     1
   1447   1468     1
   1453   2384     1
   1456   2370     1
   1462   2367     1
   1465   2381     1
   1470   1495     1
   1470   1492     1
   1470   1489     1
   1471   1486     1
   1471   1480     1
   1471   2418     1
   1474   1483     1
   1474   1480     1
   1474   2404     1
   1477   1483     1
   1477   1486     1
   1477   1498     1
   1483   2412     1
   1486   2398     1
   1492   2395     1
   1495   2409     1
   1500   1525     1
   1500   1522     1
   1500   1519     1
   1501   1516     1
   1501   1510     1
   1501   2446     1
   1504   1513     1
   1504   1510     1
   1504   2432     1
   1507   1513     1
   1507   1516     1
   1507   1528     1
   1513   2440     1
   1516   2426     1
   1522   2423     1
   1525   2437     1
   1530   1555     1
   1530   1552     1
   1530   1549     1
   1531   1546     1
   1531   1540     1
   1531   2474     1
   1534   1543     1
   1534   1540     1
   1534   2460     1
   1537   1543     1
   1537   1546     1
   1537   1558     1
   1543   2468     1
   1546   2454     1
   1552   2451     1
   1555   2465     1
   1560   1585     1
   1560   1582     1
   1560   1579     1
   1561   1576     1
   1561   1570     1
   1561   2502     1
   1564   1573     1
   1564   1570     1
   1564   2488     1
   1567   1573     1
   1567   1576     1
   1567   1588     1
   1573   2496     1
   1576   2482     1
   1582   2479     1
   1585   2493     1
   1590   1615     1
   1590   1612     1
   1590   1609     1
   1591   1606     1
   1591   1600     1
   1591   2530     1
   1594   1603     1
   1594   1600     1
   1594   2516     1
   1597   1603     1
   1597   1606     1
   1597   1618     1
   1603   2524     1
   1606   2510     1
   1612   2507     1
   1615   2521     1
   1620   1645     1
   1620   1642     1
   1620   1639     1
   1621   1636     1
   1621   1630     1
   1621   2558     1
   1624   1633     1
   1624   1630     1
   1624   2544     1
   1627   1633     1
   1627   1636     1
   1627   1648     1
   1633   2552     1
   1636   2538     1
   1642   2535     1
   1645   2549     1
   1650   1675     1
   1650   1672     1
   1650   1669     1
   1651   1666     1
   1651   1660     1
   1651   2586     1
   1654   1663     1
   1654   1660     1
   1654   2572     1
   1657   1663     1
   1657   1666     1
   1657   1678     1
   1663   2580     1
   1666   2566     1
   1672   2563     1
   1675   2577     1
   1680   1705     1
   1680   1702     1
   1680   1699     1
   1681   1696     1
   1681   1690     1
   1681   2614     1
   1684   1693     1
   1684   1690     1
   1684   2600     1
   1687   1693     1
   1687   1696     1
   1687   1708     1
   1693   2608     1
   1696   2594     1
   1702   2591     1
   1705   2605     1
   1710   1735     1
   1710   1732     1
   1710   1729     1
   1711   1726     1
   1711   1720     1
   1711   2642     1
   1714   1723     1
   1714   1720     1
   1714   2628     1
   1717   1723     1
   1717   1726     1
   1717   1738     1
   1723   2636     1
   1726   2622     1
   1732   2619     1
   1735   2633     1
   1740   1765     1
   1740   1762     1
   1740   1759     1
   1741   1756     1
   1741   1750     1
   1741   2670     1
   1744   1753     1
   1744   1750     1
   1744   2656     1
   1747   1753     1
   1747   1756     1
   1747   1768     1
   1753   2664     1
   1756   2650     1
   1762   2647     1
   1765   2661     1
   1770   1795     1
   1770   1792     1
   1770   1789     1
   1771   1786     1
   1771   1780     1
   1771   2698     1
   1774   1783     1
   1774   1780     1
   1774   2684     1
   1777   1783     1
   1777   1786     1
   1777   1798     1
   1783   2692     1
   1786   2678     1
   1792   2675     1
   1795   2689     1
   1800   1825     1
   1800   1822     1
   1800   1819     1
   1801   1816     1
   1801   1810     1
   1801   2726     1
   1804   1813     1
   1804   1810     1
   1804   2712     1
   1807   1813     1
   1807   1816     1
   1807   1828     1
   1813   2720     1
   1816   2706     1
   1822   2703     1
   1825   2717     1
   1830   1855     1
   1830   1852     1
   1830   1849     1
   1831   1846     1
   1831   1840     1
   1831   2754     1
   1834   1843     1
   1834   1840     1
   1834   2740     1
   1837   1843     1
   1837   1846     1
   1837   1858     1
   1843   2748     1
   1846   2734     1
   1852   2731     1
   1855   2745     1
   1860   1872     1
   1866   1869     1
   1874   1886     1
   1880   1883     1
   1888   1900     1
   1894   1897     1
   1902   1914     1
   1908   1911     1
   1916   1928     1
   1922   1925     1
   1930   1942     1
   1936   1939     1
   1944   1956     1
   1950   1953     1
   1958   1970     1
   1964   1967     1
   1972   1984     1
   1978   1981     1
   1986   1998     1
   1992   1995     1
   2000   2012     1
   2006   2009     1
   2014   2026     1
   2020   2023     1
   2028   2040     1
   2034   2037     1
   2042   2054     1
   2048   2051     1
   2056   2068     1
   2062   2065     1
   2070   2082     1
   2076   2079     1
   2084   2096     1
   2090   2093     1
   2098   2110     1
   2104   2107     1
   2112   2124     1
   2118   2121     1
   2126   2138     1
   2132   2135     1
   2140   2152     1
   2146   2149     1
   2154   2166     1
   2160   2163     1
   2168   2180     1
   2174   2177     1
   2182   2194     1
   2188   2191     1
   2196   2208     1
   2202   2205     1
   2210   2222     1
   2216   2219     1
   2224   2236     1
   2230   2233     1
   2238   2250     1
   2244   2247     1
   2252   2264     1
   2258   2261     1
   2266   2278     1
   2272   2275     1
   2280   2292     1
   2286   2289     1
   2294   2306     1
   2300   2303     1
   2308   2320     1
   2314   2317     1
   2322   2334     1
   2328   2331     1
   2336   2348     1
   2342   2345     1
   2350   2362     1
   2356   2359     1
   2364   2376     1
   2370   2373     1
   2378   2390     1
   2384   2387     1
   2392   2404     1
   2398   2401     1
   2406   2418     1
   2412   2415     1
   2420   2432     1
   2426   2429     1
   2434   2446     1
   2440   2443     1
   2448   2460     1
   2454   2457     1
   2462   2474     1
   2468   2471     1
   2476   2488     1
   2482   2485     1
   2490   2502     1
   2496   2499     1
   2504   2516     1
   2510   2513     1
   2518   2530     1
   2524   2527     1
   2532   2544     1
   2538   2541     1
   2546   2558     1
   2552   2555     1
   2560   2572     1
   2566   2569     1
   2574   2586     1
   2580   2583     1
   2588   2600     1
   2594   2597     1
   2602   2614     1
   2608   2611     1
   2616   2628     1
   2622   2625     1
   2630   2642     1
   2636   2639     1
   2644   2656     1
   2650   2653     1
   2658   2670     1
   2664   2667     1
   2672   2684     1
   2678   2681     1
   2686   2698     1
   2692   2695     1
   2700   2712     1
   2706   2709     1
   2714   2726     1
   2720   2723     1
   2728   2740     1
   2734   2737     1
   2742   2754     1
   2748   2751     1
      1      9     1
      1     10     1
      1     12     1
      1     13     1
      2      6     1
      2      7     1
      2     15     1
      2     16     1
      5      3     1
      3     14     1
      3      9     1
      3     10     1
      5      4     1
      4     14     1
      4      9     1
      4     10     1
      5     18     1
      5     19     1
      6     17     1
      6     12     1
      6     13     1
      7     17     1
      7     12     1
      7     13     1
      8     58     1
      9     20     1
      9     15     1
      9     16     1
     10     20     1
     10     15     1
     10     16     1
     11     59     1
     12     21     1
     12     18     1
     12     19     1
     13     21     1
     13     18     1
     13     19     1
     14     29     1
     14     30     1
     14     32     1
     14     33     1
     15     28     1
     15     31     1
     15     58     1
     16     28     1
     16     31     1
     16     58     1
     17     23     1
     17     24     1
     17     26     1
     17     27     1
     18     22     1
     18     25     1
     18     59     1
     19     22     1
     19     25     1
     19     59     1
     20     41     1
     20     42     1
     20     44     1
     20     45     1
     21     35     1
     21     36     1
     21     38     1
     21     39     1
     22     26     1
     22     27     1
     22     56     1
     22     57     1
     23     25     1
     23     59     1
     23     55     1
     23     35     1
     23     36     1
     24     25     1
     24     59     1
     24     55     1
     24     35     1
     24     36     1
     25     53     1
     25     54     1
     26     59     1
     26     52     1
     26     38     1
     26     39     1
     27     59     1
     27     52     1
     27     38     1
     27     39     1
     28     32     1
     28     33     1
     28     50     1
     28     51     1
     29     31     1
     29     58     1
     29     49     1
     29     41     1
     29     42     1
     30     31     1
     30     58     1
     30     49     1
     30     41     1
     30     42     1
     31     47     1
     31     48     1
     32     58     1
     32     46     1
     32     44     1
     32     45     1
     33     58     1
     33     46     1
     33     44     1
     33     45     1
     34     59     1
     35    178     1
     35     56     1
     35     57     1
     36    178     1
     36     56     1
     36     57     1
     37     59     1
     38    148     1
     38     53     1
     38     54     1
     39    148     1
     39     53     1
     39     54     1
     40     58     1
     41    118     1
     41     50     1
     41     51     1
     42    118     1
     42     50     1
     42     51     1
     43     58     1
     44     88     1
     44     47     1
     44     48     1
     45     88     1
     45     47     1
     45     48     1
     46     80     1
     46     81     1
     47     79     1
     48     79     1
     49    110     1
     49    111     1
     50    109     1
     51    109     1
     52    140     1
     52    141     1
     53    139     1
     54    139     1
     55    170     1
     55    171     1
     56    169     1
     57    169     1
     60     74     1
     60     75     1
     60     77     1
     60     78     1
     60     71     1
     60     72     1
     61     65     1
     61     66     1
     61     68     1
     61     69     1
     61     86     1
     61     87     1
     62     64     1
     62     67     1
     62     89     1
     62     85     1
     62     74     1
     62     75     1
     63     64     1
     63     67     1
     63     89     1
     63     85     1
     63     74     1
     63     75     1
     64     68     1
     64     69     1
     64     83     1
     64     84     1
     65     67     1
     65     89     1
     65     82     1
     65     77     1
     65     78     1
     66     67     1
     66     89     1
     66     82     1
     66     77     1
     66     78     1
     67     80     1
     67     81     1
     68     89     1
     68     79     1
     68     71     1
     68     72     1
     69     89     1
     69     79     1
     69     71     1
     69     72     1
     70     89     1
     71     88     1
     71     80     1
     71     81     1
     72     88     1
     72     80     1
     72     81     1
     73     89     1
     74    238     1
     74     86     1
     74     87     1
     75    238     1
     75     86     1
     75     87     1
     76     89     1
     77    208     1
     77     83     1
     77     84     1
     78    208     1
     78     83     1
     78     84     1
     82    200     1
     82    201     1
     83    199     1
     84    199     1
     85    230     1
     85    231     1
     86    229     1
     87    229     1
     90    104     1
     90    105     1
     90    107     1
     90    108     1
     90    101     1
     90    102     1
     91     95     1
     91     96     1
     91     98     1
     91     99     1
     91    116     1
     91    117     1
     92     94     1
     92     97     1
     92    119     1
     92    115     1
     92    104     1
     92    105     1
     93     94     1
     93     97     1
     93    119     1
     93    115     1
     93    104     1
     93    105     1
     94     98     1
     94     99     1
     94    113     1
     94    114     1
     95     97     1
     95    119     1
     95    112     1
     95    107     1
     95    108     1
     96     97     1
     96    119     1
     96    112     1
     96    107     1
     96    108     1
     97    110     1
     97    111     1
     98    119     1
     98    109     1
     98    101     1
     98    102     1
     99    119     1
     99    109     1
     99    101     1
     99    102     1
    100    119     1
    101    118     1
    101    110     1
    101    111     1
    102    118     1
    102    110     1
    102    111     1
    103    119     1
    104    298     1
    104    116     1
    104    117     1
    105    298     1
    105    116     1
    105    117     1
    106    119     1
    107    268     1
    107    113     1
    107    114     1
    108    268     1
    108    113     1
    108    114     1
    112    260     1
    112    261     1
    113    259     1
    114    259     1
    115    290     1
    115    291     1
    116    289     1
    117    289     1
    120    134     1
    120    135     1
    120    137     1
    120    138     1
    120    131     1
    120    132     1
    121    125     1
    121    126     1
    121    128     1
    121    129     1
    121    146     1
    121    147     1
    122    124     1
    122    127     1
    122    149     1
    122    145     1
    122    134     1
    122    135     1
    123    124     1
    123    127     1
    123    149     1
    123    145     1
    123    134     1
    123    135     1
    124    128     1
    124    129     1
    124    143     1
    124    144     1
    125    127     1
    125    149     1
    125    142     1
    125    137     1
    125    138     1
    126    127     1
    126    149     1
    126    142     1
    126    137     1
    126    138     1
    127    140     1
    127    141     1
    128    149     1
    128    139     1
    128    131     1
    128    132     1
    129    149     1
    129    139     1
    129    131     1
    129    132     1
    130    149     1
    131    148     1
    131    140     1
    131    141     1
    132    148     1
    132    140     1
    132    141     1
    133    149     1
    134    358     1
    134    146     1
    134    147     1
    135    358     1
    135    146     1
    135    147     1
    136    149     1
    137    328     1
    137    143     1
    137    144     1
    138    328     1
    138    143     1
    138    144     1
    142    320     1
    142    321     1
    143    319     1
    144    319     1
    145    350     1
    145    351     1
    146    349     1
    147    349     1
    150    164     1
    150    165     1
    150    167     1
    150    168     1
    150    161     1
    150    162     1
    151    155     1
    151    156     1
    151    158     1
    151    159     1
    151    176     1
    151    177     1
    152    154     1
    152    157     1
    152    179     1
    152    175     1
    152    164     1
    152    165     1
    153    154     1
    153    157     1
    153    179     1
    153    175     1
    153    164     1
    153    165     1
    154    158     1
    154    159     1
    154    173     1
    154    174     1
    155    157     1
    155    179     1
    155    172     1
    155    167     1
    155    168     1
    156    157     1
    156    179     1
    156    172     1
    156    167     1
    156    168     1
    157    170     1
    157    171     1
    158    179     1
    158    169     1
    158    161     1
    158    162     1
    159    179     1
    159    169     1
    159    161     1
    159    162     1
    160    179     1
    161    178     1
    161    170     1
    161    171     1
    162    178     1
    162    170     1
    162    171     1
    163    179     1
    164    418     1
    164    176     1
    164    177     1
    165    418     1
    165    176     1
    165    177     1
    166    179     1
    167    388     1
    167    173     1
    167    174     1
    168    388     1
    168    173     1
    168    174     1
    172    380     1
    172    381     1
    173    379     1
    174    379     1
    175    410     1
    175    411     1
    176    409     1
    177    409     1
    180    194     1
    180    195     1
    180    197     1
    180    198     1
    180    191     1
    180    192     1
    181    185     1
    181    186     1
    181    188     1
    181    189     1
    181    206     1
    181    207     1
    182    184     1
    182    187     1
    182    209     1
    182    205     1
    182    194     1
    182    195     1
    183    184     1
    183    187     1
    183    209     1
    183    205     1
    183    194     1
    183    195     1
    184    188     1
    184    189     1
    184    203     1
    184    204     1
    185    187     1
    185    209     1
    185    202     1
    185    197     1
    185    198     1
    186    187     1
    186    209     1
    186    202     1
    186    197     1
    186    198     1
    187    200     1
    187    201     1
    188    209     1
    188    199     1
    188    191     1
    188    192     1
    189    209     1
    189    199     1
    189    191     1
    189    192     1
    190    209     1
    191    208     1
    191    200     1
    191    201     1
    192    208     1
    192    200     1
    192    201     1
    193    209     1
    194    478     1
    194    206     1
    194    207     1
    195    478     1
    195    206     1
    195    207     1
    196    209     1
    197    448     1
    197    203     1
    197    204     1
    198    448     1
    198    203     1
    198    204     1
    202    440     1
    202    441     1
    203    439     1
    204    439     1
    205    470     1
    205    471     1
    206    469     1
    207    469     1
    210    224     1
    210    225     1
    210    227     1
    210    228     1
    210    221     1
    210    222     1
    211    215     1
    211    216     1
    211    218     1
    211    219     1
    211    236     1
    211    237     1
    212    214     1
    212    217     1
    212    239     1
    212    235     1
    212    224     1
    212    225     1
    213    214     1
    213    217     1
    213    239     1
    213    235     1
    213    224     1
    213    225     1
    214    218     1
    214    219     1
    214    233     1
    214    234     1
    215    217     1
    215    239     1
    215    232     1
    215    227     1
    215    228     1
    216    217     1
    216    239     1
    216    232     1
    216    227     1
    216    228     1
    217    230     1
    217    231     1
    218    239     1
    218    229     1
    218    221     1
    218    222     1
    219    239     1
    219    229     1
    219    221     1
    219    222     1
    220    239     1
    221    238     1
    221    230     1
    221    231     1
    222    238     1
    222    230     1
    222    231     1
    223    239     1
    224    538     1
    224    236     1
    224    237     1
    225    538     1
    225    236     1
    225    237     1
    226    239     1
    227    508     1
    227    233     1
    227    234     1
    228    508     1
    228    233     1
    228    234     1
    232    500     1
    232    501     1
    233    499     1
    234    499     1
    235    530     1
    235    531     1
    236    529     1
    237    529     1
    240    254     1
    240    255     1
    240    257     1
    240    258     1
    240    251     1
    240    252     1
    241    245     1
    241    246     1
    241    248     1
    241    249     1
    241    266     1
    241    267     1
    242    244     1
    242    247     1
    242    269     1
    242    265     1
    242    254     1
    242    255     1
    243    244     1
    243    247     1
    243    269     1
    243    265     1
    243    254     1
    243    255     1
    244    248     1
    244    249     1
    244    263     1
    244    264     1
    245    247     1
    245    269     1
    245    262     1
    245    257     1
    245    258     1
    246    247     1
    246    269     1
    246    262     1
    246    257     1
    246    258     1
    247    260     1
    247    261     1
    248    269     1
    248    259     1
    248    251     1
    248    252     1
    249    269     1
    249    259     1
    249    251     1
    249    252     1
    250    269     1
    251    268     1
    251    260     1
    251    261     1
    252    268     1
    252    260     1
    252    261     1
    253    269     1
    254    598     1
    254    266     1
    254    267     1
    255    598     1
    255    266     1
    255    267     1
    256    269     1
    257    568     1
    257    263     1
    257    264     1
    258    568     1
    258    263     1
    258    264     1
    262    560     1
    262    561     1
    263    559     1
    264    559     1
    265    590     1
    265    591     1
    266    589     1
    267    589     1
    270    284     1
    270    285     1
    270    287     1
    270    288     1
    270    281     1
    270    282     1
    271    275     1
    271    276     1
    271    278     1
    271    279     1
    271    296     1
    271    297     1
    272    274     1
    272    277     1
    272    299     1
    272    295     1
    272    284     1
    272    285     1
    273    274     1
    273    277     1
    273    299     1
    273    295     1
    273    284     1
    273    285     1
    274    278     1
    274    279     1
    274    293     1
    274    294     1
    275    277     1
    275    299     1
    275    292     1
    275    287     1
    275    288     1
    276    277     1
    276    299     1
    276    292     1
    276    287     1
    276    288     1
    277    290     1
    277    291     1
    278    299     1
    278    289     1
    278    281     1
    278    282     1
    279    299     1
    279    289     1
    279    281     1
    279    282     1
    280    299     1
    281    298     1
    281    290     1
    281    291     1
    282    298     1
    282    290     1
    282    291     1
    283    299     1
    284    658     1
    284    296     1
    284    297     1
    285    658     1
    285    296     1
    285    297     1
    286    299     1
    287    628     1
    287    293     1
    287    294     1
    288    628     1
    288    293     1
    288    294     1
    292    620     1
    292    621     1
    293    619     1
    294    619     1
    295    650     1
    295    651     1
    296    649     1
    297    649     1
    300    314     1
    300    315     1
    300    317     1
    300    318     1
    300    311     1
    300    312     1
    301    305     1
    301    306     1
    301    308     1
    301    309     1
    301    326     1
    301    327     1
    302    304     1
    302    307     1
    302    329     1
    302    325     1
    302    314     1
    302    315     1
    303    304     1
    303    307     1
    303    329     1
    303    325     1
    303    314     1
    303    315     1
    304    308     1
    304    309     1
    304    323     1
    304    324     1
    305    307     1
    305    329     1
    305    322     1
    305    317     1
    305    318     1
    306    307     1
    306    329     1
    306    322     1
    306    317     1
    306    318     1
    307    320     1
    307    321     1
    308    329     1
    308    319     1
    308    311     1
    308    312     1
    309    329     1
    309    319     1
    309    311     1
    309    312     1
    310    329     1
    311    328     1
    311    320     1
    311    321     1
    312    328     1
    312    320     1
    312    321     1
    313    329     1
    314    718     1
    314    326     1
    314    327     1
    315    718     1
    315    326     1
    315    327     1
    316    329     1
    317    688     1
    317    323     1
    317    324     1
    318    688     1
    318    323     1
    318    324     1
    322    680     1
    322    681     1
    323    679     1
    324    679     1
    325    710     1
    325    711     1
    326    709     1
    327    709     1
    330    344     1
    330    345     1
    330    347     1
    330    348     1
    330    341     1
    330    342     1
    331    335     1
    331    336     1
    331    338     1
    331    339     1
    331    356     1
    331    357     1
    332    334     1
    332    337     1
    332    359     1
    332    355     1
    332    344     1
    332    345     1
    333    334     1
    333    337     1
    333    359     1
    333    355     1
    333    344     1
    333    345     1
    334    338     1
    334    339     1
    334    353     1
    334    354     1
    335    337     1
    335    359     1
    335    352     1
    335    347     1
    335    348     1
    336    337     1
    336    359     1
    336    352     1
    336    347     1
    336    348     1
    337    350     1
    337    351     1
    338    359     1
    338    349     1
    338    341     1
    338    342     1
    339    359     1
    339    349     1
    339    341     1
    339    342     1
    340    359     1
    341    358     1
    341    350     1
    341    351     1
    342    358     1
    342    350     1
    342    351     1
    343    359     1
    344    778     1
    344    356     1
    344    357     1
    345    778     1
    345    356     1
    345    357     1
    346    359     1
    347    748     1
    347    353     1
    347    354     1
    348    748     1
    348    353     1
    348    354     1
    352    740     1
    352    741     1
    353    739     1
    354    739     1
    355    770     1
    355    771     1
    356    769     1
    357    769     1
    360    374     1
    360    375     1
    360    377     1
    360    378     1
    360    371     1
    360    372     1
    361    365     1
    361    366     1
    361    368     1
    361    369     1
    361    386     1
    361    387     1
    362    364     1
    362    367     1
    362    389     1
    362    385     1
    362    374     1
    362    375     1
    363    364     1
    363    367     1
    363    389     1
    363    385     1
    363    374     1
    363    375     1
    364    368     1
    364    369     1
    364    383     1
    364    384     1
    365    367     1
    365    389     1
    365    382     1
    365    377     1
    365    378     1
    366    367     1
    366    389     1
    366    382     1
    366    377     1
    366    378     1
    367    380     1
    367    381     1
    368    389     1
    368    379     1
    368    371     1
    368    372     1
    369    389     1
    369    379     1
    369    371     1
    369    372     1
    370    389     1
    371    388     1
    371    380     1
    371    381     1
    372    388     1
    372    380     1
    372    381     1
    373    389     1
    374    838     1
    374    386     1
    374    387     1
    375    838     1
    375    386     1
    375    387     1
    376    389     1
    377    808     1
    377    383     1
    377    384     1
    378    808     1
    378    383     1
    378    384     1
    382    800     1
    382    801     1
    383    799     1
    384    799     1
    385    830     1
    385    831     1
    386    829     1
    387    829     1
    390    404     1
    390    405     1
    390    407     1
    390    408     1
    390    401     1
    390    402     1
    391    395     1
    391    396     1
    391    398     1
    391    399     1
    391    416     1
    391    417     1
    392    394     1
    392    397     1
    392    419     1
    392    415     1
    392    404     1
    392    405     1
    393    394     1
    393    397     1
    393    419     1
    393    415     1
    393    404     1
    393    405     1
    394    398     1
    394    399     1
    394    413     1
    394    414     1
    395    397     1
    395    419     1
    395    412     1
    395    407     1
    395    408     1
    396    397     1
    396    419     1
    396    412     1
    396    407     1
    396    408     1
    397    410     1
    397    411     1
    398    419     1
    398    409     1
    398    401     1
    398    402     1
    399    419     1
    399    409     1
    399    401     1
    399    402     1
    400    419     1
    401    418     1
    401    410     1
    401    411     1
    402    418     1
    402    410     1
    402    411     1
    403    419     1
    404    898     1
    404    416     1
    404    417     1
    405    898     1
    405    416     1
    405    417     1
    406    419     1
    407    868     1
    407    413     1
    407    414     1
    408    868     1
    408    413     1
    408    414     1
    412    860     1
    412    861     1
    413    859     1
    414    859     1
    415    890     1
    415    891     1
    416    889     1
    417    889     1
    420    434     1
    420    435     1
    420    437     1
    420    438     1
    420    431     1
    420    432     1
    421    425     1
    421    426     1
    421    428     1
    421    429     1
    421    446     1
    421    447     1
    422    424     1
    422    427     1
    422    449     1
    422    445     1
    422    434     1
    422    435     1
    423    424     1
    423    427     1
    423    449     1
    423    445     1
    423    434     1
    423    435     1
    424    428     1
    424    429     1
    424    443     1
    424    444     1
    425    427     1
    425    449     1
    425    442     1
    425    437     1
    425    438     1
    426    427     1
    426    449     1
    426    442     1
    426    437     1
    426    438     1
    427    440     1
    427    441     1
    428    449     1
    428    439     1
    428    431     1
    428    432     1
    429    449     1
    429    439     1
    429    431     1
    429    432     1
    430    449     1
    431    448     1
    431    440     1
    431    441     1
    432    448     1
    432    440     1
    432    441     1
    433    449     1
    434    958     1
    434    446     1
    434    447     1
    435    958     1
    435    446     1
    435    447     1
    436    449     1
    437    928     1
    437    443     1
    437    444     1
    438    928     1
    438    443     1
    438    444     1
    442    920     1
    442    921     1
    443    919     1
    444    919     1
    445    950     1
    445    951     1
    446    949     1
    447    949     1
    450    464     1
    450    465     1
    450    467     1
    450    468     1
    450    461     1
    450    462     1
    451    455     1
    451    456     1
    451    458     1
    451    459     1
    451    476     1
    451    477     1
    452    454     1
    452    457     1
    452    479     1
    452    475     1
    452    464     1
    452    465     1
    453    454     1
    453    457     1
    453    479     1
    453    475     1
    453    464     1
    453    465     1
    454    458     1
    454    459     1
    454    473     1
    454    474     1
    455    457     1
    455    479     1
    455    472     1
    455    467     1
    455    468     1
    456    457     1
    456    479     1
    456    472     1
    456    467     1
    456    468     1
    457    470     1
    457    471     1
    458    479     1
    458    469     1
    458    461     1
    458    462     1
    459    479     1
    459    469     1
    459    461     1
    459    462     1
    460    479     1
    461    478     1
    461    470     1
    461    471     1
    462    478     1
    462    470     1
    462    471     1
    463    479     1
    464   1018     1
    464    476     1
    464    477     1
    465   1018     1
    465    476     1
    465    477     1
    466    479     1
    467    988     1
    467    473     1
    467    474     1
    468    988     1
    468    473     1
    468    474     1
    472    980     1
    472    981     1
    473    979     1
    474    979     1
    475   1010     1
    475   1011     1
    476   1009     1
    477   1009     1
    480    494     1
    480    495     1
    480    497     1
    480    498     1
    480    491     1
    480    492     1
    481    485     1
    481    486     1
    481    488     1
    481    489     1
    481    506     1
    481    507     1
    482    484     1
    482    487     1
    482    509     1
    482    505     1
    482    494     1
    482    495     1
    483    484     1
    483    487     1
    483    509     1
    483    505     1
    483    494     1
    483    495     1
    484    488     1
    484    489     1
    484    503     1
    484    504     1
    485    487     1
    485    509     1
    485    502     1
    485    497     1
    485    498     1
    486    487     1
    486    509     1
    486    502     1
    486    497     1
    486    498     1
    487    500     1
    487    501     1
    488    509     1
    488    499     1
    488    491     1
    488    492     1
    489    509     1
    489    499     1
    489    491     1
    489    492     1
    490    509     1
    491    508     1
    491    500     1
    491    501     1
    492    508     1
    492    500     1
    492    501     1
    493    509     1
    494   1078     1
    494    506     1
    494    507     1
    495   1078     1
    495    506     1
    495    507     1
    496    509     1
    497   1048     1
    497    503     1
    497    504     1
    498   1048     1
    498    503     1
    498    504     1
    502   1040     1
    502   1041     1
    503   1039     1
    504   1039     1
    505   1070     1
    505   1071     1
    506   1069     1
    507   1069     1
    510    524     1
    510    525     1
    510    527     1
    510    528     1
    510    521     1
    510    522     1
    511    515     1
    511    516     1
    511    518     1
    511    519     1
    511    536     1
    511    537     1
    512    514     1
    512    517     1
    512    539     1
    512    535     1
    512    524     1
    512    525     1
    513    514     1
    513    517     1
    513    539     1
    513    535     1
    513    524     1
    513    525     1
    514    518     1
    514    519     1
    514    533     1
    514    534     1
    515    517     1
    515    539     1
    515    532     1
    515    527     1
    515    528     1
    516    517     1
    516    539     1
    516    532     1
    516    527     1
    516    528     1
    517    530     1
    517    531     1
    518    539     1
    518    529     1
    518    521     1
    518    522     1
    519    539     1
    519    529     1
    519    521     1
    519    522     1
    520    539     1
    521    538     1
    521    530     1
    521    531     1
    522    538     1
    522    530     1
    522    531     1
    523    539     1
    524   1138     1
    524    536     1
    524    537     1
    525   1138     1
    525    536     1
    525    537     1
    526    539     1
    527   1108     1
    527    533     1
    527    534     1
    528   1108     1
    528    533     1
    528    534     1
    532   1100     1
    532   1101     1
    533   1099     1
    534   1099     1
    535   1130     1
    535   1131     1
    536   1129     1
    537   1129     1
    540    554     1
    540    555     1
    540    557     1
    540    558     1
    540    551     1
    540    552     1
    541    545     1
    541    546     1
    541    548     1
    541    549     1
    541    566     1
    541    567     1
    542    544     1
    542    547     1
    542    569     1
    542    565     1
    542    554     1
    542    555     1
    543    544     1
    543    547     1
    543    569     1
    543    565     1
    543    554     1
    543    555     1
    544    548     1
    544    549     1
    544    563     1
    544    564     1
    545    547     1
    545    569     1
    545    562     1
    545    557     1
    545    558     1
    546    547     1
    546    569     1
    546    562     1
    546    557     1
    546    558     1
    547    560     1
    547    561     1
    548    569     1
    548    559     1
    548    551     1
    548    552     1
    549    569     1
    549    559     1
    549    551     1
    549    552     1
    550    569     1
    551    568     1
    551    560     1
    551    561     1
    552    568     1
    552    560     1
    552    561     1
    553    569     1
    554   1198     1
    554    566     1
    554    567     1
    555   1198     1
    555    566     1
    555    567     1
    556    569     1
    557   1168     1
    557    563     1
    557    564     1
    558   1168     1
    558    563     1
    558    564     1
    562   1160     1
    562   1161     1
    563   1159     1
    564   1159     1
    565   1190     1
    565   1191     1
    566   1189     1
    567   1189     1
    570    584     1
    570    585     1
    570    587     1
    570    588     1
    570    581     1
    570    582     1
    571    575     1
    571    576     1
    571    578     1
    571    579     1
    571    596     1
    571    597     1
    572    574     1
    572    577     1
    572    599     1
    572    595     1
    572    584     1
    572    585     1
    573    574     1
    573    577     1
    573    599     1
    573    595     1
    573    584     1
    573    585     1
    574    578     1
    574    579     1
    574    593     1
    574    594     1
    575    577     1
    575    599     1
    575    592     1
    575    587     1
    575    588     1
    576    577     1
    576    599     1
    576    592     1
    576    587     1
    576    588     1
    577    590     1
    577    591     1
    578    599     1
    578    589     1
    578    581     1
    578    582     1
    579    599     1
    579    589     1
    579    581     1
    579    582     1
    580    599     1
    581    598     1
    581    590     1
    581    591     1
    582    598     1
    582    590     1
    582    591     1
    583    599     1
    584   1258     1
    584    596     1
    584    597     1
    585   1258     1
    585    596     1
    585    597     1
    586    599     1
    587   1228     1
    587    593     1
    587    594     1
    588   1228     1
    588    593     1
    588    594     1
    592   1220     1
    592   1221     1
    593   1219     1
    594   1219     1
    595   1250     1
    595   1251     1
    596   1249     1
    597   1249     1
    600    614     1
    600    615     1
    600    617     1
    600    618     1
    600    611     1
    600    612     1
    601    605     1
    601    606     1
    601    608     1
    601    609     1
    601    626     1
    601    627     1
    602    604     1
    602    607     1
    602    629     1
    602    625     1
    602    614     1
    602    615     1
    603    604     1
    603    607     1
    603    629     1
    603    625     1
    603    614     1
    603    615     1
    604    608     1
    604    609     1
    604    623     1
    604    624     1
    605    607     1
    605    629     1
    605    622     1
    605    617     1
    605    618     1
    606    607     1
    606    629     1
    606    622     1
    606    617     1
    606    618     1
    607    620     1
    607    621     1
    608    629     1
    608    619     1
    608    611     1
    608    612     1
    609    629     1
    609    619     1
    609    611     1
    609    612     1
    610    629     1
    611    628     1
    611    620     1
    611    621     1
    612    628     1
    612    620     1
    612    621     1
    613    629     1
    614   1318     1
    614    626     1
    614    627     1
    615   1318     1
    615    626     1
    615    627     1
    616    629     1
    617   1288     1
    617    623     1
    617    624     1
    618   1288     1
    618    623     1
    618    624     1
    622   1280     1
    622   1281     1
    623   1279     1
    624   1279     1
    625   1310     1
    625   1311     1
    626   1309     1
    627   1309     1
    630    644     1
    630    645     1
    630    647     1
    630    648     1
    630    641     1
    630    642     1
    631    635     1
    631    636     1
    631    638     1
    631    639     1
    631    656     1
    631    657     1
    632    634     1
    632    637     1
    632    659     1
    632    655     1
    632    644     1
    632    645     1
    633    634     1
    633    637     1
    633    659     1
    633    655     1
    633    644     1
    633    645     1
    634    638     1
    634    639     1
    634    653     1
    634    654     1
    635    637     1
    635    659     1
    635    652     1
    635    647     1
    635    648     1
    636    637     1
    636    659     1
    636    652     1
    636    647     1
    636    648     1
    637    650     1
    637    651     1
    638    659     1
    638    649     1
    638    641     1
    638    642     1
    639    659     1
    639    649     1
    639    641     1
    639    642     1
    640    659     1
    641    658     1
    641    650     1
    641    651     1
    642    658     1
    642    650     1
    642    651     1
    643    659     1
    644   1378     1
    644    656     1
    644    657     1
    645   1378     1
    645    656     1
    645    657     1
    646    659     1
    647   1348     1
    647    653     1
    647    654     1
    648   1348     1
    648    653     1
    648    654     1
    652   1340     1
    652   1341     1
    653   1339     1
    654   1339     1
    655   1370     1
    655   1371     1
    656   1369     1
    657   1369     1
    660    674     1
    660    675     1
    660    677     1
    660    678     1
    660    671     1
    660    672     1
    661    665     1
    661    666     1
    661    668     1
    661    669     1
    661    686     1
    661    687     1
    662    664     1
    662    667     1
    662    689     1
    662    685     1
    662    674     1
    662    675     1
    663    664     1
    663    667     1
    663    689     1
    663    685     1
    663    674     1
    663    675     1
    664    668     1
    664    669     1
    664    683     1
    664    684     1
    665    667     1
    665    689     1
    665    682     1
    665    677     1
    665    678     1
    666    667     1
    666    689     1
    666    682     1
    666    677     1
    666    678     1
    667    680     1
    667    681     1
    668    689     1
    668    679     1
    668    671     1
    668    672     1
    669    689     1
    669    679     1
    669    671     1
    669    672     1
    670    689     1
    671    688     1
    671    680     1
    671    681     1
    672    688     1
    672    680     1
    672    681     1
    673    689     1
    674   1438     1
    674    686     1
    674    687     1
    675   1438     1
    675    686     1
    675    687     1
    676    689     1
    677   1408     1
    677    683     1
    677    684     1
    678   1408     1
    678    683     1
    678    684     1
    682   1400     1
    682   1401     1
    683   1399     1
    684   1399     1
    685   1430     1
    685   1431     1
    686   1429     1
    687   1429     1
    690    704     1
    690    705     1
    690    707     1
    690    708     1
    690    701     1
    690    702     1
    691    695     1
    691    696     1
    691    698     1
    691    699     1
    691    716     1
    691    717     1
    692    694     1
    692    697     1
    692    719     1
    692    715     1
    692    704     1
    692    705     1
    693    694     1
    693    697     1
    693    719     1
    693    715     1
    693    704     1
    693    705     1
    694    698     1
    694    699     1
    694    713     1
    694    714     1
    695    697     1
    695    719     1
    695    712     1
    695    707     1
    695    708     1
    696    697     1
    696    719     1
    696    712     1
    696    707     1
    696    708     1
    697    710     1
    697    711     1
    698    719     1
    698    709     1
    698    701     1
    698    702     1
    699    719     1
    699    709     1
    699    701     1
    699    702     1
    700    719     1
    701    718     1
    701    710     1
    701    711     1
    702    718     1
    702    710     1
    702    711     1
    703    719     1
    704   1498     1
    704    716     1
    704    717     1
    705   1498     1
    705    716     1
    705    717     1
    706    719     1
    707   1468     1
    707    713     1
    707    714     1
    708   1468     1
    708    713     1
    708    714     1
    712   1460     1
    712   1461     1
    713   1459     1
    714   1459     1
    715   1490     1
    715   1491     1
    716   1489     1
    717   1489     1
    720    734     1
    720    735     1
    720    737     1
    720    738     1
    720    731     1
    720    732     1
    721    725     1
    721    726     1
    721    728     1
    721    729     1
    721    746     1
    721    747     1
    722    724     1
    722    727     1
    722    749     1
    722    745     1
    722    734     1
    722    735     1
    723    724     1
    723    727     1
    723    749     1
    723    745     1
    723    734     1
    723    735     1
    724    728     1
    724    729     1
    724    743     1
    724    744     1
    725    727     1
    725    749     1
    725    742     1
    725    737     1
    725    738     1
    726    727     1
    726    749     1
    726    742     1
    726    737     1
    726    738     1
    727    740     1
    727    741     1
    728    749     1
    728    739     1
    728    731     1
    728    732     1
    729    749     1
    729    739     1
    729    731     1
    729    732     1
    730    749     1
    731    748     1
    731    740     1
    731    741     1
    732    748     1
    732    740     1
    732    741     1
    733    749     1
    734   1558     1
    734    746     1
    734    747     1
    735   1558     1
    735    746     1
    735    747     1
    736    749     1
    737   1528     1
    737    743     1
    737    744     1
    738   1528     1
    738    743     1
    738    744     1
    742   1520     1
    742   1521     1
    743   1519     1
    744   1519     1
    745   1550     1
    745   1551     1
    746   1549     1
    747   1549     1
    750    764     1
    750    765     1
    750    767     1
    750    768     1
    750    761     1
    750    762     1
    751    755     1
    751    756     1
    751    758     1
    751    759     1
    751    776     1
    751    777     1
    752    754     1
    752    757     1
    752    779     1
    752    775     1
    752    764     1
    752    765     1
    753    754     1
    753    757     1
    753    779     1
    753    775     1
    753    764     1
    753    765     1
    754    758     1
    754    759     1
    754    773     1
    754    774     1
    755    757     1
    755    779     1
    755    772     1
    755    767     1
    755    768     1
    756    757     1
    756    779     1
    756    772     1
    756    767     1
    756    768     1
    757    770     1
    757    771     1
    758    779     1
    758    769     1
    758    761     1
    758    762     1
    759    779     1
    759    769     1
    759    761     1
    759    762     1
    760    779     1
    761    778     1
    761    770     1
    761    771     1
    762    778     1
    762    770     1
    762    771     1
    763    779     1
    764   1618     1
    764    776     1
    764    777     1
    765   1618     1
    765    776     1
    765    777     1
    766    779     1
    767   1588     1
    767    773     1
    767    774     1
    768   1588     1
    768    773     1
    768    774     1
    772   1580     1
    772   1581     1
    773   1579     1
    774   1579     1
    775   1610     1
    775   1611     1
    776   1609     1
    777   1609     1
    780    794     1
    780    795     1
    780    797     1
    780    798     1
    780    791     1
    780    792     1
    781    785     1
    781    786     1
    781    788     1
    781    789     1
    781    806     1
    781    807     1
    782    784     1
    782    787     1
    782    809     1
    782    805     1
    782    794     1
    782    795     1
    783    784     1
    783    787     1
    783    809     1
    783    805     1
    783    794     1
    783    795     1
    784    788     1
    784    789     1
    784    803     1
    784    804     1
    785    787     1
    785    809     1
    785    802     1
    785    797     1
    785    798     1
    786    787     1
    786    809     1
    786    802     1
    786    797     1
    786    798     1
    787    800     1
    787    801     1
    788    809     1
    788    799     1
    788    791     1
    788    792     1
    789    809     1
    789    799     1
    789    791     1
    789    792     1
    790    809     1
    791    808     1
    791    800     1
    791    801     1
    792    808     1
    792    800     1
    792    801     1
    793    809     1
    794   1678     1
    794    806     1
    794    807     1
    795   1678     1
    795    806     1
    795    807     1
    796    809     1
    797   1648     1
    797    803     1
    797    804     1
    798   1648     1
    798    803     1
    798    804     1
    802   1640     1
    802   1641     1
    803   1639     1
    804   1639     1
    805   1670     1
    805   1671     1
    806   1669     1
    807   1669     1
    810    824     1
    810    825     1
    810    827     1
    810    828     1
    810    821     1
    810    822     1
    811    815     1
    811    816     1
    811    818     1
    811    819     1
    811    836     1
    811    837     1
    812    814     1
    812    817     1
    812    839     1
    812    835     1
    812    824     1
    812    825     1
    813    814     1
    813    817     1
    813    839     1
    813    835     1
    813    824     1
    813    825     1
    814    818     1
    814    819     1
    814    833     1
    814    834     1
    815    817     1
    815    839     1
    815    832     1
    815    827     1
    815    828     1
    816    817     1
    816    839     1
    816    832     1
    816    827     1
    816    828     1
    817    830     1
    817    831     1
    818    839     1
    818    829     1
    818    821     1
    818    822     1
    819    839     1
    819    829     1
    819    821     1
    819    822     1
    820    839     1
    821    838     1
    821    830     1
    821    831     1
    822    838     1
    822    830     1
    822    831     1
    823    839     1
    824   1738     1
    824    836     1
    824    837     1
    825   1738     1
    825    836     1
    825    837     1
    826    839     1
    827   1708     1
    827    833     1
    827    834     1
    828   1708     1
    828    833     1
    828    834     1
    832   1700     1
    832   1701     1
    833   1699     1
    834   1699     1
    835   1730     1
    835   1731     1
    836   1729     1
    837   1729     1
    840    854     1
    840    855     1
    840    857     1
    840    858     1
    840    851     1
    840    852     1
    841    845     1
    841    846     1
    841    848     1
    841    849     1
    841    866     1
    841    867     1
    842    844     1
    842    847     1
    842    869     1
    842    865     1
    842    854     1
    842    855     1
    843    844     1
    843    847     1
    843    869     1
    843    865     1
    843    854     1
    843    855     1
    844    848     1
    844    849     1
    844    863     1
    844    864     1
    845    847     1
    845    869     1
    845    862     1
    845    857     1
    845    858     1
    846    847     1
    846    869     1
    846    862     1
    846    857     1
    846    858     1
    847    860     1
    847    861     1
    848    869     1
    848    859     1
    848    851     1
    848    852     1
    849    869     1
    849    859     1
    849    851     1
    849    852     1
    850    869     1
    851    868     1
    851    860     1
    851    861     1
    852    868     1
    852    860     1
    852    861     1
    853    869     1
    854   1798     1
    854    866     1
    854    867     1
    855   1798     1
    855    866     1
    855    867     1
    856    869     1
    857   1768     1
    857    863     1
    857    864     1
    858   1768     1
    858    863     1
    858    864     1
    862   1760     1
    862   1761     1
    863   1759     1
    864   1759     1
    865   1790     1
    865   1791     1
    866   1789     1
    867   1789     1
    870    884     1
    870    885     1
    870    887     1
    870    888     1
    870    881     1
    870    882     1
    871    875     1
    871    876     1
    871    878     1
    871    879     1
    871    896     1
    871    897     1
    872    874     1
    872    877     1
    872    899     1
    872    895     1
    872    884     1
    872    885     1
    873    874     1
    873    877     1
    873    899     1
    873    895     1
    873    884     1
    873    885     1
    874    878     1
    874    879     1
    874    893     1
    874    894     1
    875    877     1
    875    899     1
    875    892     1
    875    887     1
    875    888     1
    876    877     1
    876    899     1
    876    892     1
    876    887     1
    876    888     1
    877    890     1
    877    891     1
    878    899     1
    878    889     1
    878    881     1
    878    882     1
    879    899     1
    879    889     1
    879    881     1
    879    882     1
    880    899     1
    881    898     1
    881    890     1
    881    891     1
    882    898     1
    882    890     1
    882    891     1
    883    899     1
    884   1858     1
    884    896     1
    884    897     1
    885   1858     1
    885    896     1
    885    897     1
    886    899     1
    887   1828     1
    887    893     1
    887    894     1
    888   1828     1
    888    893     1
    888    894     1
    892   1820     1
    892   1821     1
    893   1819     1
    894   1819     1
    895   1850     1
    895   1851     1
    896   1849     1
    897   1849     1
    900    914     1
    900    915     1
    900    917     1
    900    918     1
    900    911     1
    900    912     1
    901    905     1
    901    906     1
    901    908     1
    901    909     1
    901    926     1
    901    927     1
    902    904     1
    902    907     1
    902    929     1
    902    925     1
    902    914     1
    902    915     1
    903    904     1
    903    907     1
    903    929     1
    903    925     1
    903    914     1
    903    915     1
    904    908     1
    904    909     1
    904    923     1
    904    924     1
    905    907     1
    905    929     1
    905    922     1
    905    917     1
    905    918     1
    906    907     1
    906    929     1
    906    922     1
    906    917     1
    906    918     1
    907    920     1
    907    921     1
    908    929     1
    908    919     1
    908    911     1
    908    912     1
    909    929     1
    909    919     1
    909    911     1
    909    912     1
    910    929     1
    911    928     1
    911    920     1
    911    921     1
    912    928     1
    912    920     1
    912    921     1
    913    929     1
    914   1886     1
    914    926     1
    914    927     1
    915   1886     1
    915    926     1
    915    927     1
    916    929     1
    917   1872     1
    917    923     1
    917    924     1
    918   1872     1
    918    923     1
    918    924     1
    922   1867     1
    922   1868     1
    923   1866     1
    924   1866     1
    925   1881     1
    925   1882     1
    926   1880     1
    927   1880     1
    930    944     1
    930    945     1
    930    947     1
    930    948     1
    930    941     1
    930    942     1
    931    935     1
    931    936     1
    931    938     1
    931    939     1
    931    956     1
    931    957     1
    932    934     1
    932    937     1
    932    959     1
    932    955     1
    932    944     1
    932    945     1
    933    934     1
    933    937     1
    933    959     1
    933    955     1
    933    944     1
    933    945     1
    934    938     1
    934    939     1
    934    953     1
    934    954     1
    935    937     1
    935    959     1
    935    952     1
    935    947     1
    935    948     1
    936    937     1
    936    959     1
    936    952     1
    936    947     1
    936    948     1
    937    950     1
    937    951     1
    938    959     1
    938    949     1
    938    941     1
    938    942     1
    939    959     1
    939    949     1
    939    941     1
    939    942     1
    940    959     1
    941    958     1
    941    950     1
    941    951     1
    942    958     1
    942    950     1
    942    951     1
    943    959     1
    944   1914     1
    944    956     1
    944    957     1
    945   1914     1
    945    956     1
    945    957     1
    946    959     1
    947   1900     1
    947    953     1
    947    954     1
    948   1900     1
    948    953     1
    948    954     1
    952   1895     1
    952   1896     1
    953   1894     1
    954   1894     1
    955   1909     1
    955   1910     1
    956   1908     1
    957   1908     1
    960    974     1
    960    975     1
    960    977     1
    960    978     1
    960    971     1
    960    972     1
    961    965     1
    961    966     1
    961    968     1
    961    969     1
    961    986     1
    961    987     1
    962    964     1
    962    967     1
    962    989     1
    962    985     1
    962    974     1
    962    975     1
    963    964     1
    963    967     1
    963    989     1
    963    985     1
    963    974     1
    963    975     1
    964    968     1
    964    969     1
    964    983     1
    964    984     1
    965    967     1
    965    989     1
    965    982     1
    965    977     1
    965    978     1
    966    967     1
    966    989     1
    966    982     1
    966    977     1
    966    978     1
    967    980     1
    967    981     1
    968    989     1
    968    979     1
    968    971     1
    968    972     1
    969    989     1
    969    979     1
    969    971     1
    969    972     1
    970    989     1
    971    988     1
    971    980     1
    971    981     1
    972    988     1
    972    980     1
    972    981     1
    973    989     1
    974   1942     1
    974    986     1
    974    987     1
    975   1942     1
    975    986     1
    975    987     1
    976    989     1
    977   1928     1
    977    983     1
    977    984     1
    978   1928     1
    978    983     1
    978    984     1
    982   1923     1
    982   1924     1
    983   1922     1
    984   1922     1
    985   1937     1
    985   1938     1
    986   1936     1
    987   1936     1
    990   1004     1
    990   1005     1
    990   1007     1
    990   1008     1
    990   1001     1
    990   1002     1
    991    995     1
    991    996     1
    991    998     1
    991    999     1
    991   1016     1
    991   1017     1
    992    994     1
    992    997     1
    992   1019     1
    992   1015     1
    992   1004     1
    992   1005     1
    993    994     1
    993    997     1
    993   1019     1
    993   1015     1
    993   1004     1
    993   1005     1
    994    998     1
    994    999     1
    994   1013     1
    994   1014     1
    995    997     1
    995   1019     1
    995   1012     1
    995   1007     1
    995   1008     1
    996    997     1
    996   1019     1
    996   1012     1
    996   1007     1
    996   1008     1
    997   1010     1
    997   1011     1
    998   1019     1
    998   1009     1
    998   1001     1
    998   1002     1
    999   1019     1
    999   1009     1
    999   1001     1
    999   1002     1
   1000   1019     1
   1001   1018     1
   1001   1010     1
   1001   1011     1
   1002   1018     1
   1002   1010     1
   1002   1011     1
   1003   1019     1
   1004   1970     1
   1004   1016     1
   1004   1017     1
   1005   1970     1
   1005   1016     1
   1005   1017     1
   1006   1019     1
   1007   1956     1
   1007   1013     1
   1007   1014     1
   1008   1956     1
   1008   1013     1
   1008   1014     1
   1012   1951     1
   1012   1952     1
   1013   1950     1
   1014   1950     1
   1015   1965     1
   1015   1966     1
   1016   1964     1
   1017   1964     1
   1020   1034     1
   1020   1035     1
   1020   1037     1
   1020   1038     1
   1020   1031     1
   1020   1032     1
   1021   1025     1
   1021   1026     1
   1021   1028     1
   1021   1029     1
   1021   1046     1
   1021   1047     1
   1022   1024     1
   1022   1027     1
   1022   1049     1
   1022   1045     1
   1022   1034     1
   1022   1035     1
   1023   1024     1
   1023   1027     1
   1023   1049     1
   1023   1045     1
   1023   1034     1
   1023   1035     1
   1024   1028     1
   1024   1029     1
   1024   1043     1
   1024   1044     1
   1025   1027     1
   1025   1049     1
   1025   1042     1
   1025   1037     1
   1025   1038     1
   1026   1027     1
   1026   1049     1
   1026   1042     1
   1026   1037     1
   1026   1038     1
   1027   1040     1
   1027   1041     1
   1028   1049     1
   1028   1039     1
   1028   1031     1
   1028   1032     1
   1029   1049     1
   1029   1039     1
   1029   1031     1
   1029   1032     1
   1030   1049     1
   1031   1048     1
   1031   1040     1
   1031   1041     1
   1032   1048     1
   1032   1040     1
   1032   1041     1
   1033   1049     1
   1034   1998     1
   1034   1046     1
   1034   1047     1
   1035   1998     1
   1035   1046     1
   1035   1047     1
   1036   1049     1
   1037   1984     1
   1037   1043     1
   1037   1044     1
   1038   1984     1
   1038   1043     1
   1038   1044     1
   1042   1979     1
   1042   1980     1
   1043   1978     1
   1044   1978     1
   1045   1993     1
   1045   1994     1
   1046   1992     1
   1047   1992     1
   1050   1064     1
   1050   1065     1
   1050   1067     1
   1050   1068     1
   1050   1061     1
   1050   1062     1
   1051   1055     1
   1051   1056     1
   1051   1058     1
   1051   1059     1
   1051   1076     1
   1051   1077     1
   1052   1054     1
   1052   1057     1
   1052   1079     1
   1052   1075     1
   1052   1064     1
   1052   1065     1
   1053   1054     1
   1053   1057     1
   1053   1079     1
   1053   1075     1
   1053   1064     1
   1053   1065     1
   1054   1058     1
   1054   1059     1
   1054   1073     1
   1054   1074     1
   1055   1057     1
   1055   1079     1
   1055   1072     1
   1055   1067     1
   1055   1068     1
   1056   1057     1
   1056   1079     1
   1056   1072     1
   1056   1067     1
   1056   1068     1
   1057   1070     1
   1057   1071     1
   1058   1079     1
   1058   1069     1
   1058   1061     1
   1058   1062     1
   1059   1079     1
   1059   1069     1
   1059   1061     1
   1059   1062     1
   1060   1079     1
   1061   1078     1
   1061   1070     1
   1061   1071     1
   1062   1078     1
   1062   1070     1
   1062   1071     1
   1063   1079     1
   1064   2026     1
   1064   1076     1
   1064   1077     1
   1065   2026     1
   1065   1076     1
   1065   1077     1
   1066   1079     1
   1067   2012     1
   1067   1073     1
   1067   1074     1
   1068   2012     1
   1068   1073     1
   1068   1074     1
   1072   2007     1
   1072   2008     1
   1073   2006     1
   1074   2006     1
   1075   2021     1
   1075   2022     1
   1076   2020     1
   1077   2020     1
   1080   1094     1
   1080   1095     1
   1080   1097     1
   1080   1098     1
   1080   1091     1
   1080   1092     1
   1081   1085     1
   1081   1086     1
   1081   1088     1
   1081   1089     1
   1081   1106     1
   1081   1107     1
   1082   1084     1
   1082   1087     1
   1082   1109     1
   1082   1105     1
   1082   1094     1
   1082   1095     1
   1083   1084     1
   1083   1087     1
   1083   1109     1
   1083   1105     1
   1083   1094     1
   1083   1095     1
   1084   1088     1
   1084   1089     1
   1084   1103     1
   1084   1104     1
   1085   1087     1
   1085   1109     1
   1085   1102     1
   1085   1097     1
   1085   1098     1
   1086   1087     1
   1086   1109     1
   1086   1102     1
   1086   1097     1
   1086   1098     1
   1087   1100     1
   1087   1101     1
   1088   1109     1
   1088   1099     1
   1088   1091     1
   1088   1092     1
   1089   1109     1
   1089   1099     1
   1089   1091     1
   1089   1092     1
   1090   1109     1
   1091   1108     1
   1091   1100     1
   1091   1101     1
   1092   1108     1
   1092   1100     1
   1092   1101     1
   1093   1109     1
   1094   2054     1
   1094   1106     1
   1094   1107     1
   1095   2054     1
   1095   1106     1
   1095   1107     1
   1096   1109     1
   1097   2040     1
   1097   1103     1
   1097   1104     1
   1098   2040     1
   1098   1103     1
   1098   1104     1
   1102   2035     1
   1102   2036     1
   1103   2034     1
   1104   2034     1
   1105   2049     1
   1105   2050     1
   1106   2048     1
   1107   2048     1
   1110   1124     1
   1110   1125     1
   1110   1127     1
   1110   1128     1
   1110   1121     1
   1110   1122     1
   1111   1115     1
   1111   1116     1
   1111   1118     1
   1111   1119     1
   1111   1136     1
   1111   1137     1
   1112   1114     1
   1112   1117     1
   1112   1139     1
   1112   1135     1
   1112   1124     1
   1112   1125     1
   1113   1114     1
   1113   1117     1
   1113   1139     1
   1113   1135     1
   1113   1124     1
   1113   1125     1
   1114   1118     1
   1114   1119     1
   1114   1133     1
   1114   1134     1
   1115   1117     1
   1115   1139     1
   1115   1132     1
   1115   1127     1
   1115   1128     1
   1116   1117     1
   1116   1139     1
   1116   1132     1
   1116   1127     1
   1116   1128     1
   1117   1130     1
   1117   1131     1
   1118   1139     1
   1118   1129     1
   1118   1121     1
   1118   1122     1
   1119   1139     1
   1119   1129     1
   1119   1121     1
   1119   1122     1
   1120   1139     1
   1121   1138     1
   1121   1130     1
   1121   1131     1
   1122   1138     1
   1122   1130     1
   1122   1131     1
   1123   1139     1
   1124   2082     1
   1124   1136     1
   1124   1137     1
   1125   2082     1
   1125   1136     1
   1125   1137     1
   1126   1139     1
   1127   2068     1
   1127   1133     1
   1127   1134     1
   1128   2068     1
   1128   1133     1
   1128   1134     1
   1132   2063     1
   1132   2064     1
   1133   2062     1
   1134   2062     1
   1135   2077     1
   1135   2078     1
   1136   2076     1
   1137   2076     1
   1140   1154     1
   1140   1155     1
   1140   1157     1
   1140   1158     1
   1140   1151     1
   1140   1152     1
   1141   1145     1
   1141   1146     1
   1141   1148     1
   1141   1149     1
   1141   1166     1
   1141   1167     1
   1142   1144     1
   1142   1147     1
   1142   1169     1
   1142   1165     1
   1142   1154     1
   1142   1155     1
   1143   1144     1
   1143   1147     1
   1143   1169     1
   1143   1165     1
   1143   1154     1
   1143   1155     1
   1144   1148     1
   1144   1149     1
   1144   1163     1
   1144   1164     1
   1145   1147     1
   1145   1169     1
   1145   1162     1
   1145   1157     1
   1145   1158     1
   1146   1147     1
   1146   1169     1
   1146   1162     1
   1146   1157     1
   1146   1158     1
   1147   1160     1
   1147   1161     1
   1148   1169     1
   1148   1159     1
   1148   1151     1
   1148   1152     1
   1149   1169     1
   1149   1159     1
   1149   1151     1
   1149   1152     1
   1150   1169     1
   1151   1168     1
   1151   1160     1
   1151   1161     1
   1152   1168     1
   1152   1160     1
   1152   1161     1
   1153   1169     1
   1154   2110     1
   1154   1166     1
   1154   1167     1
   1155   2110     1
   1155   1166     1
   1155   1167     1
   1156   1169     1
   1157   2096     1
   1157   1163     1
   1157   1164     1
   1158   2096     1
   1158   1163     1
   1158   1164     1
   1162   2091     1
   1162   2092     1
   1163   2090     1
   1164   2090     1
   1165   2105     1
   1165   2106     1
   1166   2104     1
   1167   2104     1
   1170   1184     1
   1170   1185     1
   1170   1187     1
   1170   1188     1
   1170   1181     1
   1170   1182     1
   1171   1175     1
   1171   1176     1
   1171   1178     1
   1171   1179     1
   1171   1196     1
   1171   1197     1
   1172   1174     1
   1172   1177     1
   1172   1199     1
   1172   1195     1
   1172   1184     1
   1172   1185     1
   1173   1174     1
   1173   1177     1
   1173   1199     1
   1173   1195     1
   1173   1184     1
   1173   1185     1
   1174   1178     1
   1174   1179     1
   1174   1193     1
   1174   1194     1
   1175   1177     1
   1175   1199     1
   1175   1192     1
   1175   1187     1
   1175   1188     1
   1176   1177     1
   1176   1199     1
   1176   1192     1
   1176   1187     1
   1176   1188     1
   1177   1190     1
   1177   1191     1
   1178   1199     1
   1178   1189     1
   1178   1181     1
   1178   1182     1
   1179   1199     1
   1179   1189     1
   1179   1181     1
   1179   1182     1
   1180   1199     1
   1181   1198     1
   1181   1190     1
   1181   1191     1
   1182   1198     1
   1182   1190     1
   1182   1191     1
   1183   1199     1
   1184   2138     1
   1184   1196     1
   1184   1197     1
   1185   2138     1
   1185   1196     1
   1185   1197     1
   1186   1199     1
   1187   2124     1
   1187   1193     1
   1187   1194     1
   1188   2124     1
   1188   1193     1
   1188   1194     1
   1192   2119     1
   1192   2120     1
   1193   2118     1
   1194   2118     1
   1195   2133     1
   1195   2134     1
   1196   2132     1
   1197   2132     1
   1200   1214     1
   1200   1215     1
   1200   1217     1
   1200   1218     1
   1200   1211     1
   1200   1212     1
   1201   1205     1
   1201   1206     1
   1201   1208     1
   1201   1209     1
   1201   1226     1
   1201   1227     1
   1202   1204     1
   1202   1207     1
   1202   1229     1
   1202   1225     1
   1202   1214     1
   1202   1215     1
   1203   1204     1
   1203   1207     1
   1203   1229     1
   1203   1225     1
   1203   1214     1
   1203   1215     1
   1204   1208     1
   1204   1209     1
   1204   1223     1
   1204   1224     1
   1205   1207     1
   1205   1229     1
   1205   1222     1
   1205   1217     1
   1205   1218     1
   1206   1207     1
   1206   1229     1
   1206   1222     1
   1206   1217     1
   1206   1218     1
   1207   1220     1
   1207   1221     1
   1208   1229     1
   1208   1219     1
   1208   1211     1
   1208   1212     1
   1209   1229     1
   1209   1219     1
   1209   1211     1
   1209   1212     1
   1210   1229     1
   1211   1228     1
   1211   1220     1
   1211   1221     1
   1212   1228     1
   1212   1220     1
   1212   1221     1
   1213   1229     1
   1214   2166     1
   1214   1226     1
   1214   1227     1
   1215   2166     1
   1215   1226     1
   1215   1227     1
   1216   1229     1
   1217   2152     1
   1217   1223     1
   1217   1224     1
   1218   2152     1
   1218   1223     1
   1218   1224     1
   1222   2147     1
   1222   2148     1
   1223   2146     1
   1224   2146     1
   1225   2161     1
   1225   2162     1
   1226   2160     1
   1227   2160     1
   1230   1244     1
   1230   1245     1
   1230   1247     1
   1230   1248     1
   1230   1241     1
   1230   1242     1
   1231   1235     1
   1231   1236     1
   1231   1238     1
   1231   1239     1
   1231   1256     1
   1231   1257     1
   1232   1234     1
   1232   1237     1
   1232   1259     1
   1232   1255     1
   1232   1244     1
   1232   1245     1
   1233   1234     1
   1233   1237     1
   1233   1259     1
   1233   1255     1
   1233   1244     1
   1233   1245     1
   1234   1238     1
   1234   1239     1
   1234   1253     1
   1234   1254     1
   1235   1237     1
   1235   1259     1
   1235   1252     1
   1235   1247     1
   1235   1248     1
   1236   1237     1
   1236   1259     1
   1236   1252     1
   1236   1247     1
   1236   1248     1
   1237   1250     1
   1237   1251     1
   1238   1259     1
   1238   1249     1
   1238   1241     1
   1238   1242     1
   1239   1259     1
   1239   1249     1
   1239   1241     1
   1239   1242     1
   1240   1259     1
   1241   1258     1
   1241   1250     1
   1241   1251     1
   1242   1258     1
   1242   1250     1
   1242   1251     1
   1243   1259     1
   1244   2194     1
   1244   1256     1
   1244   1257     1
   1245   2194     1
   1245   1256     1
   1245   1257     1
   1246   1259     1
   1247   2180     1
   1247   1253     1
   1247   1254     1
   1248   2180     1
   1248   1253     1
   1248   1254     1
   1252   2175     1
   1252   2176     1
   1253   2174     1
   1254   2174     1
   1255   2189     1
   1255   2190     1
   1256   2188     1
   1257   2188     1
   1260   1274     1
   1260   1275     1
   1260   1277     1
   1260   1278     1
   1260   1271     1
   1260   1272     1
   1261   1265     1
   1261   1266     1
   1261   1268     1
   1261   1269     1
   1261   1286     1
   1261   1287     1
   1262   1264     1
   1262   1267     1
   1262   1289     1
   1262   1285     1
   1262   1274     1
   1262   1275     1
   1263   1264     1
   1263   1267     1
   1263   1289     1
   1263   1285     1
   1263   1274     1
   1263   1275     1
   1264   1268     1
   1264   1269     1
   1264   1283     1
   1264   1284     1
   1265   1267     1
   1265   1289     1
   1265   1282     1
   1265   1277     1
   1265   1278     1
   1266   1267     1
   1266   1289     1
   1266   1282     1
   1266   1277     1
   1266   1278     1
   1267   1280     1
   1267   1281     1
   1268   1289     1
   1268   1279     1
   1268   1271     1
   1268   1272     1
   1269   1289     1
   1269   1279     1
   1269   1271     1
   1269   1272     1
   1270   1289     1
   1271   1288     1
   1271   1280     1
   1271   1281     1
   1272   1288     1
   1272   1280     1
   1272   1281     1
   1273   1289     1
   1274   2222     1
   1274   1286     1
   1274   1287     1
   1275   2222     1
   1275   1286     1
   1275   1287     1
   1276   1289     1
   1277   2208     1
   1277   1283     1
   1277   1284     1
   1278   2208     1
   1278   1283     1
   1278   1284     1
   1282   2203     1
   1282   2204     1
   1283   2202     1
   1284   2202     1
   1285   2217     1
   1285   2218     1
   1286   2216     1
   1287   2216     1
   1290   1304     1
   1290   1305     1
   1290   1307     1
   1290   1308     1
   1290   1301     1
   1290   1302     1
   1291   1295     1
   1291   1296     1
   1291   1298     1
   1291   1299     1
   1291   1316     1
   1291   1317     1
   1292   1294     1
   1292   1297     1
   1292   1319     1
   1292   1315     1
   1292   1304     1
   1292   1305     1
   1293   1294     1
   1293   1297     1
   1293   1319     1
   1293   1315     1
   1293   1304     1
   1293   1305     1
   1294   1298     1
   1294   1299     1
   1294   1313     1
   1294   1314     1
   1295   1297     1
   1295   1319     1
   1295   1312     1
   1295   1307     1
   1295   1308     1
   1296   1297     1
   1296   1319     1
   1296   1312     1
   1296   1307     1
   1296   1308     1
   1297   1310     1
   1297   1311     1
   1298   1319     1
   1298   1309     1
   1298   1301     1
   1298   1302     1
   1299   1319     1
   1299   1309     1
   1299   1301     1
   1299   1302     1
   1300   1319     1
   1301   1318     1
   1301   1310     1
   1301   1311     1
   1302   1318     1
   1302   1310     1
   1302   1311     1
   1303   1319     1
   1304   2250     1
   1304   1316     1
   1304   1317     1
   1305   2250     1
   1305   1316     1
   1305   1317     1
   1306   1319     1
   1307   2236     1
   1307   1313     1
   1307   1314     1
   1308   2236     1
   1308   1313     1
   1308   1314     1
   1312   2231     1
   1312   2232     1
   1313   2230     1
   1314   2230     1
   1315   2245     1
   1315   2246     1
   1316   2244     1
   1317   2244     1
   1320   1334     1
   1320   1335     1
   1320   1337     1
   1320   1338     1
   1320   1331     1
   1320   1332     1
   1321   1325     1
   1321   1326     1
   1321   1328     1
   1321   1329     1
   1321   1346     1
   1321   1347     1
   1322   1324     1
   1322   1327     1
   1322   1349     1
   1322   1345     1
   1322   1334     1
   1322   1335     1
   1323   1324     1
   1323   1327     1
   1323   1349     1
   1323   1345     1
   1323   1334     1
   1323   1335     1
   1324   1328     1
   1324   1329     1
   1324   1343     1
   1324   1344     1
   1325   1327     1
   1325   1349     1
   1325   1342     1
   1325   1337     1
   1325   1338     1
   1326   1327     1
   1326   1349     1
   1326   1342     1
   1326   1337     1
   1326   1338     1
   1327   1340     1
   1327   1341     1
   1328   1349     1
   1328   1339     1
   1328   1331     1
   1328   1332     1
   1329   1349     1
   1329   1339     1
   1329   1331     1
   1329   1332     1
   1330   1349     1
   1331   1348     1
   1331   1340     1
   1331   1341     1
   1332   1348     1
   1332   1340     1
   1332   1341     1
   1333   1349     1
   1334   2278     1
   1334   1346     1
   1334   1347     1
   1335   2278     1
   1335   1346     1
   1335   1347     1
   1336   1349     1
   1337   2264     1
   1337   1343     1
   1337   1344     1
   1338   2264     1
   1338   1343     1
   1338   1344     1
   1342   2259     1
   1342   2260     1
   1343   2258     1
   1344   2258     1
   1345   2273     1
   1345   2274     1
   1346   2272     1
   1347   2272     1
   1350   1364     1
   1350   1365     1
   1350   1367     1
   1350   1368     1
   1350   1361     1
   1350   1362     1
   1351   1355     1
   1351   1356     1
   1351   1358     1
   1351   1359     1
   1351   1376     1
   1351   1377     1
   1352   1354     1
   1352   1357     1
   1352   1379     1
   1352   1375     1
   1352   1364     1
   1352   1365     1
   1353   1354     1
   1353   1357     1
   1353   1379     1
   1353   1375     1
   1353   1364     1
   1353   1365     1
   1354   1358     1
   1354   1359     1
   1354   1373     1
   1354   1374     1
   1355   1357     1
   1355   1379     1
   1355   1372     1
   1355   1367     1
   1355   1368     1
   1356   1357     1
   1356   1379     1
   1356   1372     1
   1356   1367     1
   1356   1368     1
   1357   1370     1
   1357   1371     1
   1358   1379     1
   1358   1369     1
   1358   1361     1
   1358   1362     1
   1359   1379     1
   1359   1369     1
   1359   1361     1
   1359   1362     1
   1360   1379     1
   1361   1378     1
   1361   1370     1
   1361   1371     1
   1362   1378     1
   1362   1370     1
   1362   1371     1
   1363   1379     1
   1364   2306     1
   1364   1376     1
   1364   1377     1
   1365   2306     1
   1365   1376     1
   1365   1377     1
   1366   1379     1
   1367   2292     1
   1367   1373     1
   1367   1374     1
   1368   2292     1
   1368   1373     1
   1368   1374     1
   1372   2287     1
   1372   2288     1
   1373   2286     1
   1374   2286     1
   1375   2301     1
   1375   2302     1
   1376   2300     1
   1377   2300     1
   1380   1394     1
   1380   1395     1
   1380   1397     1
   1380   1398     1
   1380   1391     1
   1380   1392     1
   1381   1385     1
   1381   1386     1
   1381   1388     1
   1381   1389     1
   1381   1406     1
   1381   1407     1
   1382   1384     1
   1382   1387     1
   1382   1409     1
   1382   1405     1
   1382   1394     1
   1382   1395     1
   1383   1384     1
   1383   1387     1
   1383   1409     1
   1383   1405     1
   1383   1394     1
   1383   1395     1
   1384   1388     1
   1384   1389     1
   1384   1403     1
   1384   1404     1
   1385   1387     1
   1385   1409     1
   1385   1402     1
   1385   1397     1
   1385   1398     1
   1386   1387     1
   1386   1409     1
   1386   1402     1
   1386   1397     1
   1386   1398     1
   1387   1400     1
   1387   1401     1
   1388   1409     1
   1388   1399     1
   1388   1391     1
   1388   1392     1
   1389   1409     1
   1389   1399     1
   1389   1391     1
   1389   1392     1
   1390   1409     1
   1391   1408     1
   1391   1400     1
   1391   1401     1
   1392   1408     1
   1392   1400     1
   1392   1401     1
   1393   1409     1
   1394   2334     1
   1394   1406     1
   1394   1407     1
   1395   2334     1
   1395   1406     1
   1395   1407     1
   1396   1409     1
   1397   2320     1
   1397   1403     1
   1397   1404     1
   1398   2320     1
   1398   1403     1
   1398   1404     1
   1402   2315     1
   1402   2316     1
   1403   2314     1
   1404   2314     1
   1405   2329     1
   1405   2330     1
   1406   2328     1
   1407   2328     1
   1410   1424     1
   1410   1425     1
   1410   1427     1
   1410   1428     1
   1410   1421     1
   1410   1422     1
   1411   1415     1
   1411   1416     1
   1411   1418     1
   1411   1419     1
   1411   1436     1
   1411   1437     1
   1412   1414     1
   1412   1417     1
   1412   1439     1
   1412   1435     1
   1412   1424     1
   1412   1425     1
   1413   1414     1
   1413   1417     1
   1413   1439     1
   1413   1435     1
   1413   1424     1
   1413   1425     1
   1414   1418     1
   1414   1419     1
   1414   1433     1
   1414   1434     1
   1415   1417     1
   1415   1439     1
   1415   1432     1
   1415   1427     1
   1415   1428     1
   1416   1417     1
   1416   1439     1
   1416   1432     1
   1416   1427     1
   1416   1428     1
   1417   1430     1
   1417   1431     1
   1418   1439     1
   1418   1429     1
   1418   1421     1
   1418   1422     1
   1419   1439     1
   1419   1429     1
   1419   1421     1
   1419   1422     1
   1420   1439     1
   1421   1438     1
   1421   1430     1
   1421   1431     1
   1422   1438     1
   1422   1430     1
   1422   1431     1
   1423   1439     1
   1424   2362     1
   1424   1436     1
   1424   1437     1
   1425   2362     1
   1425   1436     1
   1425   1437     1
   1426   1439     1
   1427   2348     1
   1427   1433     1
   1427   1434     1
   1428   2348     1
   1428   1433     1
   1428   1434     1
   1432   2343     1
   1432   2344     1
   1433   2342     1
   1434   2342     1
   1435   2357     1
   1435   2358     1
   1436   2356     1
   1437   2356     1
   1440   1454     1
   1440   1455     1
   1440   1457     1
   1440   1458     1
   1440   1451     1
   1440   1452     1
   1441   1445     1
   1441   1446     1
   1441   1448     1
   1441   1449     1
   1441   1466     1
   1441   1467     1
   1442   1444     1
   1442   1447     1
   1442   1469     1
   1442   1465     1
   1442   1454     1
   1442   1455     1
   1443   1444     1
   1443   1447     1
   1443   1469     1
   1443   1465     1
   1443   1454     1
   1443   1455     1
   1444   1448     1
   1444   1449     1
   1444   1463     1
   1444   1464     1
   1445   1447     1
   1445   1469     1
   1445   1462     1
   1445   1457     1
   1445   1458     1
   1446   1447     1
   1446   1469     1
   1446   1462     1
   1446   1457     1
   1446   1458     1
   1447   1460     1
   1447   1461     1
   1448   1469     1
   1448   1459     1
   1448   1451     1
   1448   1452     1
   1449   1469     1
   1449   1459     1
   1449   1451     1
   1449   1452     1
   1450   1469     1
   1451   1468     1
   1451   1460     1
   1451   1461     1
   1452   1468     1
   1452   1460     1
   1452   1461     1
   1453   1469     1
   1454   2390     1
   1454   1466     1
   1454   1467     1
   1455   2390     1
   1455   1466     1
   1455   1467     1
   1456   1469     1
   1457   2376     1
   1457   1463     1
   1457   1464     1
   1458   2376     1
   1458   1463     1
   1458   1464     1
   1462   2371     1
   1462   2372     1
   1463   2370     1
   1464   2370     1
   1465   2385     1
   1465   2386     1
   1466   2384     1
   1467   2384     1
   1470   1484     1
   1470   1485     1
   1470   1487     1
   1470   1488     1
   1470   1481     1
   1470   1482     1
   1471   1475     1
   1471   1476     1
   1471   1478     1
   1471   1479     1
   1471   1496     1
   1471   1497     1
   1472   1474     1
   1472   1477     1
   1472   1499     1
   1472   1495     1
   1472   1484     1
   1472   1485     1
   1473   1474     1
   1473   1477     1
   1473   1499     1
   1473   1495     1
   1473   1484     1
   1473   1485     1
   1474   1478     1
   1474   1479     1
   1474   1493     1
   1474   1494     1
   1475   1477     1
   1475   1499     1
   1475   1492     1
   1475   1487     1
   1475   1488     1
   1476   1477     1
   1476   1499     1
   1476   1492     1
   1476   1487     1
   1476   1488     1
   1477   1490     1
   1477   1491     1
   1478   1499     1
   1478   1489     1
   1478   1481     1
   1478   1482     1
   1479   1499     1
   1479   1489     1
   1479   1481     1
   1479   1482     1
   1480   1499     1
   1481   1498     1
   1481   1490     1
   1481   1491     1
   1482   1498     1
   1482   1490     1
   1482   1491     1
   1483   1499     1
   1484   2418     1
   1484   1496     1
   1484   1497     1
   1485   2418     1
   1485   1496     1
   1485   1497     1
   1486   1499     1
   1487   2404     1
   1487   1493     1
   1487   1494     1
   1488   2404     1
   1488   1493     1
   1488   1494     1
   1492   2399     1
   1492   2400     1
   1493   2398     1
   1494   2398     1
   1495   2413     1
   1495   2414     1
   1496   2412     1
   1497   2412     1
   1500   1514     1
   1500   1515     1
   1500   1517     1
   1500   1518     1
   1500   1511     1
   1500   1512     1
   1501   1505     1
   1501   1506     1
   1501   1508     1
   1501   1509     1
   1501   1526     1
   1501   1527     1
   1502   1504     1
   1502   1507     1
   1502   1529     1
   1502   1525     1
   1502   1514     1
   1502   1515     1
   1503   1504     1
   1503   1507     1
   1503   1529     1
   1503   1525     1
   1503   1514     1
   1503   1515     1
   1504   1508     1
   1504   1509     1
   1504   1523     1
   1504   1524     1
   1505   1507     1
   1505   1529     1
   1505   1522     1
   1505   1517     1
   1505   1518     1
   1506   1507     1
   1506   1529     1
   1506   1522     1
   1506   1517     1
   1506   1518     1
   1507   1520     1
   1507   1521     1
   1508   1529     1
   1508   1519     1
   1508   1511     1
   1508   1512     1
   1509   1529     1
   1509   1519     1
   1509   1511     1
   1509   1512     1
   1510   1529     1
   1511   1528     1
   1511   1520     1
   1511   1521     1
   1512   1528     1
   1512   1520     1
   1512   1521     1
   1513   1529     1
   1514   2446     1
   1514   1526     1
   1514   1527     1
   1515   2446     1
   1515   1526     1
   1515   1527     1
   1516   1529     1
   1517   2432     1
   1517   1523     1
   1517   1524     1
   1518   2432     1
   1518   1523     1
   1518   1524     1
   1522   2427     1
   1522   2428     1
   1523   2426     1
   1524   2426     1
   1525   2441     1
   1525   2442     1
   1526   2440     1
   1527   2440     1
   1530   1544     1
   1530   1545     1
   1530   1547     1
   1530   1548     1
   1530   1541     1
   1530   1542     1
   1531   1535     1
   1531   1536     1
   1531   1538     1
   1531   1539     1
   1531   1556     1
   1531   1557     1
   1532   1534     1
   1532   1537     1
   1532   1559     1
   1532   1555     1
   1532   1544     1
   1532   1545     1
   1533   1534     1
   1533   1537     1
   1533   1559     1
   1533   1555     1
   1533   1544     1
   1533   1545     1
   1534   1538     1
   1534   1539     1
   1534   1553     1
   1534   1554     1
   1535   1537     1
   1535   1559     1
   1535   1552     1
   1535   1547     1
   1535   1548     1
   1536   1537     1
   1536   1559     1
   1536   1552     1
   1536   1547     1
   1536   1548     1
   1537   1550     1
   1537   1551     1
   1538   1559     1
   1538   1549     1
   1538   1541     1
   1538   1542     1
   1539   1559     1
   1539   1549     1
   1539   1541     1
   1539   1542     1
   1540   1559     1
   1541   1558     1
   1541   1550     1
   1541   1551     1
   1542   1558     1
   1542   1550     1
   1542   1551     1
   1543   1559     1
   1544   2474     1
   1544   1556     1
   1544   1557     1
   1545   2474     1
   1545   1556     1
   1545   1557     1
   1546   1559     1
   1547   2460     1
   1547   1553     1
   1547   1554     1
   1548   2460     1
   1548   1553     1
   1548   1554     1
   1552   2455     1
   1552   2456     1
   1553   2454     1
   1554   2454     1
   1555   2469     1
   1555   2470     1
   1556   2468     1
   1557   2468     1
   1560   1574     1
   1560   1575     1
   1560   1577     1
   1560   1578     1
   1560   1571     1
   1560   1572     1
   1561   1565     1
   1561   1566     1
   1561   1568     1
   1561   1569     1
   1561   1586     1
   1561   1587     1
   1562   1564     1
   1562   1567     1
   1562   1589     1
   1562   1585     1
   1562   1574     1
   1562   1575     1
   1563   1564     1
   1563   1567     1
   1563   1589     1
   1563   1585     1
   1563   1574     1
   1563   1575     1
   1564   1568     1
   1564   1569     1
   1564   1583     1
   1564   1584     1
   1565   1567     1
   1565   1589     1
   1565   1582     1
   1565   1577     1
   1565   1578     1
   1566   1567     1
   1566   1589     1
   1566   1582     1
   1566   1577     1
   1566   1578     1
   1567   1580     1
   1567   1581     1
   1568   1589     1
   1568   1579     1
   1568   1571     1
   1568   1572     1
   1569   1589     1
   1569   1579     1
   1569   1571     1
   1569   1572     1
   1570   1589     1
   1571   1588     1
   1571   1580     1
   1571   1581     1
   1572   1588     1
   1572   1580     1
   1572   1581     1
   1573   1589     1
   1574   2502     1
   1574   1586     1
   1574   1587     1
   1575   2502     1
   1575   1586     1
   1575   1587     1
   1576   1589     1
   1577   2488     1
   1577   1583     1
   1577   1584     1
   1578   2488     1
   1578   1583     1
   1578   1584     1
   1582   2483     1
   1582   2484     1
   1583   2482     1
   1584   2482     1
   1585   2497     1
   1585   2498     1
   1586   2496     1
   1587   2496     1
   1590   1604     1
   1590   1605     1
   1590   1607     1
   1590   1608     1
   1590   1601     1
   1590   1602     1
   1591   1595     1
   1591   1596     1
   1591   1598     1
   1591   1599     1
   1591   1616     1
   1591   1617     1
   1592   1594     1
   1592   1597     1
   1592   1619     1
   1592   1615     1
   1592   1604     1
   1592   1605     1
   1593   1594     1
   1593   1597     1
   1593   1619     1
   1593   1615     1
   1593   1604     1
   1593   1605     1
   1594   1598     1
   1594   1599     1
   1594   1613     1
   1594   1614     1
   1595   1597     1
   1595   1619     1
   1595   1612     1
   1595   1607     1
   1595   1608     1
   1596   1597     1
   1596   1619     1
   1596   1612     1
   1596   1607     1
   1596   1608     1
   1597   1610     1
   1597   1611     1
   1598   1619     1
   1598   1609     1
   1598   1601     1
   1598   1602     1
   1599   1619     1
   1599   1609     1
   1599   1601     1
   1599   1602     1
   1600   1619     1
   1601   1618     1
   1601   1610     1
   1601   1611     1
   1602   1618     1
   1602   1610     1
   1602   1611     1
   1603   1619     1
   1604   2530     1
   1604   1616     1
   1604   1617     1
   1605   2530     1
   1605   1616     1
   1605   1617     1
   1606   1619     1
   1607   2516     1
   1607   1613     1
   1607   1614     1
   1608   2516     1
   1608   1613     1
   1608   1614     1
   1612   2511     1
   1612   2512     1
   1613   2510     1
   1614   2510     1
   1615   2525     1
   1615   2526     1
   1616   2524     1
   1617   2524     1
   1620   1634     1
   1620   1635     1
   1620   1637     1
   1620   1638     1
   1620   1631     1
   1620   1632     1
   1621   1625     1
   1621   1626     1
   1621   1628     1
   1621   1629     1
   1621   1646     1
   1621   1647     1
   1622   1624     1
   1622   1627     1
   1622   1649     1
   1622   1645     1
   1622   1634     1
   1622   1635     1
   1623   1624     1
   1623   1627     1
   1623   1649     1
   1623   1645     1
   1623   1634     1
   1623   1635     1
   1624   1628     1
   1624   1629     1
   1624   1643     1
   1624   1644     1
   1625   1627     1
   1625   1649     1
   1625   1642     1
   1625   1637     1
   1625   1638     1
   1626   1627     1
   1626   1649     1
   1626   1642     1
   1626   1637     1
   1626   1638     1
   1627   1640     1
   1627   1641     1
   1628   1649     1
   1628   1639     1
   1628   1631     1
   1628   1632     1
   1629   1649     1
   1629   1639     1
   1629   1631     1
   1629   1632     1
   1630   1649     1
   1631   1648     1
   1631   1640     1
   1631   1641     1
   1632   1648     1
   1632   1640     1
   1632   1641     1
   1633   1649     1
   1634   2558     1
   1634   1646     1
   1634   1647     1
   1635   2558     1
   1635   1646     1
   1635   1647     1
   1636   1649     1
   1637   2544     1
   1637   1643     1
   1637   1644     1
   1638   2544     1
   1638   1643     1
   1638   1644     1
   1642   2539     1
   1642   2540     1
   1643   2538     1
   1644   2538     1
   1645   2553     1
   1645   2554     1
   1646   2552     1
   1647   2552     1
   1650   1664     1
   1650   1665     1
   1650   1667     1
   1650   1668     1
   1650   1661     1
   1650   1662     1
   1651   1655     1
   1651   1656     1
   1651   1658     1
   1651   1659     1
   1651   1676     1
   1651   1677     1
   1652   1654     1
   1652   1657     1
   1652   1679     1
   1652   1675     1
   1652   1664     1
   1652   1665     1
   1653   1654     1
   1653   1657     1
   1653   1679     1
   1653   1675     1
   1653   1664     1
   1653   1665     1
   1654   1658     1
   1654   1659     1
   1654   1673     1
   1654   1674     1
   1655   1657     1
   1655   1679     1
   1655   1672     1
   1655   1667     1
   1655   1668     1
   1656   1657     1
   1656   1679     1
   1656   1672     1
   1656   1667     1
   1656   1668     1
   1657   1670     1
   1657   1671     1
   1658   1679     1
   1658   1669     1
   1658   1661     1
   1658   1662     1
   1659   1679     1
   1659   1669     1
   1659   1661     1
   1659   1662     1
   1660   1679     1
   1661   1678     1
   1661   1670     1
   1661   1671     1
   1662   1678     1
   1662   1670     1
   1662   1671     1
   1663   1679     1
   1664   2586     1
   1664   1676     1
   1664   1677     1
   1665   2586     1
   1665   1676     1
   1665   1677     1
   1666   1679     1
   1667   2572     1
   1667   1673     1
   1667   1674     1
   1668   2572     1
   1668   1673     1
   1668   1674     1
   1672   2567     1
   1672   2568     1
   1673   2566     1
   1674   2566     1
   1675   2581     1
   1675   2582     1
   1676   2580     1
   1677   2580     1
   1680   1694     1
   1680   1695     1
   1680   1697     1
   1680   1698     1
   1680   1691     1
   1680   1692     1
   1681   1685     1
   1681   1686     1
   1681   1688     1
   1681   1689     1
   1681   1706     1
   1681   1707     1
   1682   1684     1
   1682   1687     1
   1682   1709     1
   1682   1705     1
   1682   1694     1
   1682   1695     1
   1683   1684     1
   1683   1687     1
   1683   1709     1
   1683   1705     1
   1683   1694     1
   1683   1695     1
   1684   1688     1
   1684   1689     1
   1684   1703     1
   1684   1704     1
   1685   1687     1
   1685   1709     1
   1685   1702     1
   1685   1697     1
   1685   1698     1
   1686   1687     1
   1686   1709     1
   1686   1702     1
   1686   1697     1
   1686   1698     1
   1687   1700     1
   1687   1701     1
   1688   1709     1
   1688   1699     1
   1688   1691     1
   1688   1692     1
   1689   1709     1
   1689   1699     1
   1689   1691     1
   1689   1692     1
   1690   1709     1
   1691   1708     1
   1691   1700     1
   1691   1701     1
   1692   1708     1
   1692   1700     1
   1692   1701     1
   1693   1709     1
   1694   2614     1
   1694   1706     1
   1694   1707     1
   1695   2614     1
   1695   1706     1
   1695   1707     1
   1696   1709     1
   1697   2600     1
   1697   1703     1
   1697   1704     1
   1698   2600     1
   1698   1703     1
   1698   1704     1
   1702   2595     1
   1702   2596     1
   1703   2594     1
   1704   2594     1
   1705   2609     1
   1705   2610     1
   1706   2608     1
   1707   2608     1
   1710   1724     1
   1710   1725     1
   1710   1727     1
   1710   1728     1
   1710   1721     1
   1710   1722     1
   1711   1715     1
   1711   1716     1
   1711   1718     1
   1711   1719     1
   1711   1736     1
   1711   1737     1
   1712   1714     1
   1712   1717     1
   1712   1739     1
   1712   1735     1
   1712   1724     1
   1712   1725     1
   1713   1714     1
   1713   1717     1
   1713   1739     1
   1713   1735     1
   1713   1724     1
   1713   1725     1
   1714   1718     1
   1714   1719     1
   1714   1733     1
   1714   1734     1
   1715   1717     1
   1715   1739     1
   1715   1732     1
   1715   1727     1
   1715   1728     1
   1716   1717     1
   1716   1739     1
   1716   1732     1
   1716   1727     1
   1716   1728     1
   1717   1730     1
   1717   1731     1
   1718   1739     1
   1718   1729     1
   1718   1721     1
   1718   1722     1
   1719   1739     1
   1719   1729     1
   1719   1721     1
   1719   1722     1
   1720   1739     1
   1721   1738     1
   1721   1730     1
   1721   1731     1
   1722   1738     1
   1722   1730     1
   1722   1731     1
   1723   1739     1
   1724   2642     1
   1724   1736     1
   1724   1737     1
   1725   2642     1
   1725   1736     1
   1725   1737     1
   1726   1739     1
   1727   2628     1
   1727   1733     1
   1727   1734     1
   1728   2628     1
   1728   1733     1
   1728   1734     1
   1732   2623     1
   1732   2624     1
   1733   2622     1
   1734   2622     1
   1735   2637     1
   1735   2638     1
   1736   2636     1
   1737   2636     1
   1740   1754     1
   1740   1755     1
   1740   1757     1
   1740   1758     1
   1740   1751     1
   1740   1752     1
   1741   1745     1
   1741   1746     1
   1741   1748     1
   1741   1749     1
   1741   1766     1
   1741   1767     1
   1742   1744     1
   1742   1747     1
   1742   1769     1
   1742   1765     1
   1742   1754     1
   1742   1755     1
   1743   1744     1
   1743   1747     1
   1743   1769     1
   1743   1765     1
   1743   1754     1
   1743   1755     1
   1744   1748     1
   1744   1749     1
   1744   1763     1
   1744   1764     1
   1745   1747     1
   1745   1769     1
   1745   1762     1
   1745   1757     1
   1745   1758     1
   1746   1747     1
   1746   1769     1
   1746   1762     1
   1746   1757     1
   1746   1758     1
   1747   1760     1
   1747   1761     1
   1748   1769     1
   1748   1759     1
   1748   1751     1
   1748   1752     1
   1749   1769     1
   1749   1759     1
   1749   1751     1
   1749   1752     1
   1750   1769     1
   1751   1768     1
   1751   1760     1
   1751   1761     1
   1752   1768     1
   1752   1760     1
   1752   1761     1
   1753   1769     1
   1754   2670     1
   1754   1766     1
   1754   1767     1
   1755   2670     1
   1755   1766     1
   1755   1767     1
   1756   1769     1
   1757   2656     1
   1757   1763     1
   1757   1764     1
   1758   2656     1
   1758   1763     1
   1758   1764     1
   1762   2651     1
   1762   2652     1
   1763   2650     1
   1764   2650     1
   1765   2665     1
   1765   2666     1
   1766   2664     1
   1767   2664     1
   1770   1784     1
   1770   1785     1
   1770   1787     1
   1770   1788     1
   1770   1781     1
   1770   1782     1
   1771   1775     1
   1771   1776     1
   1771   1778     1
   1771   1779     1
   1771   1796     1
   1771   1797     1
   1772   1774     1
   1772   1777     1
   1772   1799     1
   1772   1795     1
   1772   1784     1
   1772   1785     1
   1773   1774     1
   1773   1777     1
   1773   1799     1
   1773   1795     1
   1773   1784     1
   1773   1785     1
   1774   1778     1
   1774   1779     1
   1774   1793     1
   1774   1794     1
   1775   1777     1
   1775   1799     1
   1775   1792     1
   1775   1787     1
   1775   1788     1
   1776   1777     1
   1776   1799     1
   1776   1792     1
   1776   1787     1
   1776   1788     1
   1777   1790     1
   1777   1791     1
   1778   1799     1
   1778   1789     1
   1778   1781     1
   1778   1782     1
   1779   1799     1
   1779   1789     1
   1779   1781     1
   1779   1782     1
   1780   1799     1
   1781   1798     1
   1781   1790     1
   1781   1791     1
   1782   1798     1
   1782   1790     1
   1782   1791     1
   1783   1799     1
   1784   2698     1
   1784   1796     1
   1784   1797     1
   1785   2698     1
   1785   1796     1
   1785   1797     1
   1786   1799     1
   1787   2684     1
   1787   1793     1
   1787   1794     1
   1788   2684     1
   1788   1793     1
   1788   1794     1
   1792   2679     1
   1792   2680     1
   1793   2678     1
   1794   2678     1
   1795   2693     1
   1795   2694     1
   1796   2692     1
   1797   2692     1
   1800   1814     1
   1800   1815     1
   1800   1817     1
   1800   1818     1
   1800   1811     1
   1800   1812     1
   1801   1805     1
   1801   1806     1
   1801   1808     1
   1801   1809     1
   1801   1826     1
   1801   1827     1
   1802   1804     1
   1802   1807     1
   1802   1829     1
   1802   1825     1
   1802   1814     1
   1802   1815     1
   1803   1804     1
   1803   1807     1
   1803   1829     1
   1803   1825     1
   1803   1814     1
   1803   1815     1
   1804   1808     1
   1804   1809     1
   1804   1823     1
   1804   1824     1
   1805   1807     1
   1805   1829     1
   1805   1822     1
   1805   1817     1
   1805   1818     1
   1806   1807     1
   1806   1829     1
   1806   1822     1
   1806   1817     1
   1806   1818     1
   1807   1820     1
   1807   1821     1
   1808   1829     1
   1808   1819     1
   1808   1811     1
   1808   1812     1
   1809   1829     1
   1809   1819     1
   1809   1811     1
   1809   1812     1
   1810   1829     1
   1811   1828     1
   1811   1820     1
   1811   1821     1
   1812   1828     1
   1812   1820     1
   1812   1821     1
   1813   1829     1
   1814   2726     1
   1814   1826     1
   1814   1827     1
   1815   2726     1
   1815   1826     1
   1815   1827     1
   1816   1829     1
   1817   2712     1
   1817   1823     1
   1817   1824     1
   1818   2712     1
   1818   1823     1
   1818   1824     1
   1822   2707     1
   1822   2708     1
   1823   2706     1
   1824   2706     1
   1825   2721     1
   1825   2722     1
   1826   2720     1
   1827   2720     1
   1830   1844     1
   1830   1845     1
   1830   1847     1
   1830   1848     1
   1830   1841     1
   1830   1842     1
   1831   1835     1
   1831   1836     1
   1831   1838     1
   1831   1839     1
   1831   1856     1
   1831   1857     1
   1832   1834     1
   1832   1837     1
   1832   1859     1
   1832   1855     1
   1832   1844     1
   1832   1845     1
   1833   1834     1
   1833   1837     1
   1833   1859     1
   1833   1855     1
   1833   1844     1
   1833   1845     1
   1834   1838     1
   1834   1839     1
   1834   1853     1
   1834   1854     1
   1835   1837     1
   1835   1859     1
   1835   1852     1
   1835   1847     1
   1835   1848     1
   1836   1837     1
   1836   1859     1
   1836   1852     1
   1836   1847     1
   1836   1848     1
   1837   1850     1
   1837   1851     1
   1838   1859     1
   1838   1849     1
   1838   1841     1
   1838   1842     1
   1839   1859     1
   1839   1849     1
   1839   1841     1
   1839   1842     1
   1840   1859     1
   1841   1858     1
   1841   1850     1
   1841   1851     1
   1842   1858     1
   1842   1850     1
   1842   1851     1
   1843   1859     1
   1844   2754     1
   1844   1856     1
   1844   1857     1
   1845   2754     1
   1845   1856     1
   1845   1857     1
   1846   1859     1
   1847   2740     1
   1847   1853     1
   1847   1854     1
   1848   2740     1
   1848   1853     1
   1848   1854     1
   1852   2735     1
   1852   2736     1
   1853   2734     1
   1854   2734     1
   1855   2749     1
   1855   2750     1
   1856   2748     1
   1857   2748     1
   1860   1867     1
   1860   1868     1
   1861   1866     1
   1861   1864     1
   1861   1865     1
   1861   1870     1
   1861   1871     1
   1861   1873     1
   1862   1866     1
   1862   1864     1
   1862   1865     1
   1862   1870     1
   1862   1871     1
   1862   1873     1
   1863   1870     1
   1863   1871     1
   1863   1873     1
   1864   1869     1
   1864   1872     1
   1864   1867     1
   1864   1868     1
   1865   1869     1
   1865   1872     1
   1865   1867     1
   1865   1868     1
   1874   1881     1
   1874   1882     1
   1875   1880     1
   1875   1878     1
   1875   1879     1
   1875   1884     1
   1875   1885     1
   1875   1887     1
   1876   1880     1
   1876   1878     1
   1876   1879     1
   1876   1884     1
   1876   1885     1
   1876   1887     1
   1877   1884     1
   1877   1885     1
   1877   1887     1
   1878   1886     1
   1878   1881     1
   1878   1882     1
   1878   1883     1
   1879   1886     1
   1879   1881     1
   1879   1882     1
   1879   1883     1
   1888   1895     1
   1888   1896     1
   1889   1894     1
   1889   1892     1
   1889   1893     1
   1889   1898     1
   1889   1899     1
   1889   1901     1
   1890   1894     1
   1890   1892     1
   1890   1893     1
   1890   1898     1
   1890   1899     1
   1890   1901     1
   1891   1898     1
   1891   1899     1
   1891   1901     1
   1892   1897     1
   1892   1900     1
   1892   1895     1
   1892   1896     1
   1893   1897     1
   1893   1900     1
   1893   1895     1
   1893   1896     1
   1902   1909     1
   1902   1910     1
   1903   1908     1
   1903   1906     1
   1903   1907     1
   1903   1912     1
   1903   1913     1
   1903   1915     1
   1904   1908     1
   1904   1906     1
   1904   1907     1
   1904   1912     1
   1904   1913     1
   1904   1915     1
   1905   1912     1
   1905   1913     1
   1905   1915     1
   1906   1914     1
   1906   1909     1
   1906   1910     1
   1906   1911     1
   1907   1914     1
   1907   1909     1
   1907   1910     1
   1907   1911     1
   1916   1923     1
   1916   1924     1
   1917   1922     1
   1917   1920     1
   1917   1921     1
   1917   1926     1
   1917   1927     1
   1917   1929     1
   1918   1922     1
   1918   1920     1
   1918   1921     1
   1918   1926     1
   1918   1927     1
   1918   1929     1
   1919   1926     1
   1919   1927     1
   1919   1929     1
   1920   1925     1
   1920   1928     1
   1920   1923     1
   1920   1924     1
   1921   1925     1
   1921   1928     1
   1921   1923     1
   1921   1924     1
   1930   1937     1
   1930   1938     1
   1931   1936     1
   1931   1934     1
   1931   1935     1
   1931   1940     1
   1931   1941     1
   1931   1943     1
   1932   1936     1
   1932   1934     1
   1932   1935     1
   1932   1940     1
   1932   1941     1
   1932   1943     1
   1933   1940     1
   1933   1941     1
   1933   1943     1
   1934   1942     1
   1934   1937     1
   1934   1938     1
   1934   1939     1
   1935   1942     1
   1935   1937     1
   1935   1938     1
   1935   1939     1
   1944   1951     1
   1944   1952     1
   1945   1950     1
   1945   1948     1
   1945   1949     1
   1945   1954     1
   1945   1955     1
   1945   1957     1
   1946   1950     1
   1946   1948     1
   1946   1949     1
   1946   1954     1
   1946   1955     1
   1946   1957     1
   1947   1954     1
   1947   1955     1
   1947   1957     1
   1948   1953     1
   1948   1956     1
   1948   1951     1
   1948   1952     1
   1949   1953     1
   1949   1956     1
   1949   1951     1
   1949   1952     1
   1958   1965     1
   1958   1966     1
   1959   1964     1
   1959   1962     1
   1959   1963     1
   1959   1968     1
   1959   1969     1
   1959   1971     1
   1960   1964     1
   1960   1962     1
   1960   1963     1
   1960   1968     1
   1960   1969     1
   1960   1971     1
   1961   1968     1
   1961   1969     1
   1961   1971     1
   1962   1970     1
   1962   1965     1
   1962   1966     1
   1962   1967     1
   1963   1970     1
   1963   1965     1
   1963   1966     1
   1963   1967     1
   1972   1979     1
   1972   1980     1
   1973   1978     1
   1973   1976     1
   1973   1977     1
   1973   1982     1
   1973   1983     1
   1973   1985     1
   1974   1978     1
   1974   1976     1
   1974   1977     1
   1974   1982     1
   1974   1983     1
   1974   1985     1
   1975   1982     1
   1975   1983     1
   1975   1985     1
   1976   1981     1
   1976   1984     1
   1976   1979     1
   1976   1980     1
   1977   1981     1
   1977   1984     1
   1977   1979     1
   1977   1980     1
   1986   1993     1
   1986   1994     1
   1987   1992     1
   1987   1990     1
   1987   1991     1
   1987   1996     1
   1987   1997     1
   1987   1999     1
   1988   1992     1
   1988   1990     1
   1988   1991     1
   1988   1996     1
   1988   1997     1
   1988   1999     1
   1989   1996     1
   1989   1997     1
   1989   1999     1
   1990   1998     1
   1990   1993     1
   1990   1994     1
   1990   1995     1
   1991   1998     1
   1991   1993     1
   1991   1994     1
   1991   1995     1
   2000   2007     1
   2000   2008     1
   2001   2006     1
   2001   2004     1
   2001   2005     1
   2001   2010     1
   2001   2011     1
   2001   2013     1
   2002   2006     1
   2002   2004     1
   2002   2005     1
   2002   2010     1
   2002   2011     1
   2002   2013     1
   2003   2010     1
   2003   2011     1
   2003   2013     1
   2004   2009     1
   2004   2012     1
   2004   2007     1
   2004   2008     1
   2005   2009     1
   2005   2012     1
   2005   2007     1
   2005   2008     1
   2014   2021     1
   2014   2022     1
   2015   2020     1
   2015   2018     1
   2015   2019     1
   2015   2024     1
   2015   2025     1
   2015   2027     1
   2016   2020     1
   2016   2018     1
   2016   2019     1
   2016   2024     1
   2016   2025     1
   2016   2027     1
   2017   2024     1
   2017   2025     1
   2017   2027     1
   2018   2026     1
   2018   2021     1
   2018   2022     1
   2018   2023     1
   2019   2026     1
   2019   2021     1
   2019   2022     1
   2019   2023     1
   2028   2035     1
   2028   2036     1
   2029   2034     1
   2029   2032     1
   2029   2033     1
   2029   2038     1
   2029   2039     1
   2029   2041     1
   2030   2034     1
   2030   2032     1
   2030   2033     1
   2030   2038     1
   2030   2039     1
   2030   2041     1
   2031   2038     1
   2031   2039     1
   2031   2041     1
   2032   2037     1
   2032   2040     1
   2032   2035     1
   2032   2036     1
   2033   2037     1
   2033   2040     1
   2033   2035     1
   2033   2036     1
   2042   2049     1
   2042   2050     1
   2043   2048     1
   2043   2046     1
   2043   2047     1
   2043   2052     1
   2043   2053     1
   2043   2055     1
   2044   2048     1
   2044   2046     1
   2044   2047     1
   2044   2052     1
   2044   2053     1
   2044   2055     1
   2045   2052     1
   2045   2053     1
   2045   2055     1
   2046   2054     1
   2046   2049     1
   2046   2050     1
   2046   2051     1
   2047   2054     1
   2047   2049     1
   2047   2050     1
   2047   2051     1
   2056   2063     1
   2056   2064     1
   2057   2062     1
   2057   2060     1
   2057   2061     1
   2057   2066     1
   2057   2067     1
   2057   2069     1
   2058   2062     1
   2058   2060     1
   2058   2061     1
   2058   2066     1
   2058   2067     1
   2058   2069     1
   2059   2066     1
   2059   2067     1
   2059   2069     1
   2060   2065     1
   2060   2068     1
   2060   2063     1
   2060   2064     1
   2061   2065     1
   2061   2068     1
   2061   2063     1
   2061   2064     1
   2070   2077     1
   2070   2078     1
   2071   2076     1
   2071   2074     1
   2071   2075     1
   2071   2080     1
   2071   2081     1
   2071   2083     1
   2072   2076     1
   2072   2074     1
   2072   2075     1
   2072   2080     1
   2072   2081     1
   2072   2083     1
   2073   2080     1
   2073   2081     1
   2073   2083     1
   2074   2082     1
   2074   2077     1
   2074   2078     1
   2074   2079     1
   2075   2082     1
   2075   2077     1
   2075   2078     1
   2075   2079     1
   2084   2091     1
   2084   2092     1
   2085   2090     1
   2085   2088     1
   2085   2089     1
   2085   2094     1
   2085   2095     1
   2085   2097     1
   2086   2090     1
   2086   2088     1
   2086   2089     1
   2086   2094     1
   2086   2095     1
   2086   2097     1
   2087   2094     1
   2087   2095     1
   2087   2097     1
   2088   2093     1
   2088   2096     1
   2088   2091     1
   2088   2092     1
   2089   2093     1
   2089   2096     1
   2089   2091     1
   2089   2092     1
   2098   2105     1
   2098   2106     1
   2099   2104     1
   2099   2102     1
   2099   2103     1
   2099   2108     1
   2099   2109     1
   2099   2111     1
   2100   2104     1
   2100   2102     1
   2100   2103     1
   2100   2108     1
   2100   2109     1
   2100   2111     1
   2101   2108     1
   2101   2109     1
   2101   2111     1
   2102   2110     1
   2102   2105     1
   2102   2106     1
   2102   2107     1
   2103   2110     1
   2103   2105     1
   2103   2106     1
   2103   2107     1
   2112   2119     1
   2112   2120     1
   2113   2118     1
   2113   2116     1
   2113   2117     1
   2113   2122     1
   2113   2123     1
   2113   2125     1
   2114   2118     1
   2114   2116     1
   2114   2117     1
   2114   2122     1
   2114   2123     1
   2114   2125     1
   2115   2122     1
   2115   2123     1
   2115   2125     1
   2116   2121     1
   2116   2124     1
   2116   2119     1
   2116   2120     1
   2117   2121     1
   2117   2124     1
   2117   2119     1
   2117   2120     1
   2126   2133     1
   2126   2134     1
   2127   2132     1
   2127   2130     1
   2127   2131     1
   2127   2136     1
   2127   2137     1
   2127   2139     1
   2128   2132     1
   2128   2130     1
   2128   2131     1
   2128   2136     1
   2128   2137     1
   2128   2139     1
   2129   2136     1
   2129   2137     1
   2129   2139     1
   2130   2138     1
   2130   2133     1
   2130   2134     1
   2130   2135     1
   2131   2138     1
   2131   2133     1
   2131   2134     1
   2131   2135     1
   2140   2147     1
   2140   2148     1
   2141   2146     1
   2141   2144     1
   2141   2145     1
   2141   2150     1
   2141   2151     1
   2141   2153     1
   2142   2146     1
   2142   2144     1
   2142   2145     1
   2142   2150     1
   2142   2151     1
   2142   2153     1
   2143   2150     1
   2143   2151     1
   2143   2153     1
   2144   2149     1
   2144   2152     1
   2144   2147     1
   2144   2148     1
   2145   2149     1
   2145   2152     1
   2145   2147     1
   2145   2148     1
   2154   2161     1
   2154   2162     1
   2155   2160     1
   2155   2158     1
   2155   2159     1
   2155   2164     1
   2155   2165     1
   2155   2167     1
   2156   2160     1
   2156   2158     1
   2156   2159     1
   2156   2164     1
   2156   2165     1
   2156   2167     1
   2157   2164     1
   2157   2165     1
   2157   2167     1
   2158   2166     1
   2158   2161     1
   2158   2162     1
   2158   2163     1
   2159   2166     1
   2159   2161     1
   2159   2162     1
   2159   2163     1
   2168   2175     1
   2168   2176     1
   2169   2174     1
   2169   2172     1
   2169   2173     1
   2169   2178     1
   2169   2179     1
   2169   2181     1
   2170   2174     1
   2170   2172     1
   2170   2173     1
   2170   2178     1
   2170   2179     1
   2170   2181     1
   2171   2178     1
   2171   2179     1
   2171   2181     1
   2172   2177     1
   2172   2180     1
   2172   2175     1
   2172   2176     1
   2173   2177     1
   2173   2180     1
   2173   2175     1
   2173   2176     1
   2182   2189     1
   2182   2190     1
   2183   2188     1
   2183   2186     1
   2183   2187     1
   2183   2192     1
   2183   2193     1
   2183   2195     1
   2184   2188     1
   2184   2186     1
   2184   2187     1
   2184   2192     1
   2184   2193     1
   2184   2195     1
   2185   2192     1
   2185   2193     1
   2185   2195     1
   2186   2194     1
   2186   2189     1
   2186   2190     1
   2186   2191     1
   2187   2194     1
   2187   2189     1
   2187   2190     1
   2187   2191     1
   2196   2203     1
   2196   2204     1
   2197   2202     1
   2197   2200     1
   2197   2201     1
   2197   2206     1
   2197   2207     1
   2197   2209     1
   2198   2202     1
   2198   2200     1
   2198   2201     1
   2198   2206     1
   2198   2207     1
   2198   2209     1
   2199   2206     1
   2199   2207     1
   2199   2209     1
   2200   2205     1
   2200   2208     1
   2200   2203     1
   2200   2204     1
   2201   2205     1
   2201   2208     1
   2201   2203     1
   2201   2204     1
   2210   2217     1
   2210   2218     1
   2211   2216     1
   2211   2214     1
   2211   2215     1
   2211   2220     1
   2211   2221     1
   2211   2223     1
   2212   2216     1
   2212   2214     1
   2212   2215     1
   2212   2220     1
   2212   2221     1
   2212   2223     1
   2213   2220     1
   2213   2221     1
   2213   2223     1
   2214   2222     1
   2214   2217     1
   2214   2218     1
   2214   2219     1
   2215   2222     1
   2215   2217     1
   2215   2218     1
   2215   2219     1
   2224   2231     1
   2224   2232     1
   2225   2230     1
   2225   2228     1
   2225   2229     1
   2225   2234     1
   2225   2235     1
   2225   2237     1
   2226   2230     1
   2226   2228     1
   2226   2229     1
   2226   2234     1
   2226   2235     1
   2226   2237     1
   2227   2234     1
   2227   2235     1
   2227   2237     1
   2228   2233     1
   2228   2236     1
   2228   2231     1
   2228   2232     1
   2229   2233     1
   2229   2236     1
   2229   2231     1
   2229   2232     1
   2238   2245     1
   2238   2246     1
   2239   2244     1
   2239   2242     1
   2239   2243     1
   2239   2248     1
   2239   2249     1
   2239   2251     1
   2240   2244     1
   2240   2242     1
   2240   2243     1
   2240   2248     1
   2240   2249     1
   2240   2251     1
   2241   2248     1
   2241   2249     1
   2241   2251     1
   2242   2250     1
   2242   2245     1
   2242   2246     1
   2242   2247     1
   2243   2250     1
   2243   2245     1
   2243   2246     1
   2243   2247     1
   2252   2259     1
   2252   2260     1
   2253   2258     1
   2253   2256     1
   2253   2257     1
   2253   2262     1
   2253   2263     1
   2253   2265     1
   2254   2258     1
   2254   2256     1
   2254   2257     1
   2254   2262     1
   2254   2263     1
   2254   2265     1
   2255   2262     1
   2255   2263     1
   2255   2265     1
   2256   2261     1
   2256   2264     1
   2256   2259     1
   2256   2260     1
   2257   2261     1
   2257   2264     1
   2257   2259     1
   2257   2260     1
   2266   2273     1
   2266   2274     1
   2267   2272     1
   2267   2270     1
   2267   2271     1
   2267   2276     1
   2267   2277     1
   2267   2279     1
   2268   2272     1
   2268   2270     1
   2268   2271     1
   2268   2276     1
   2268   2277     1
   2268   2279     1
   2269   2276     1
   2269   2277     1
   2269   2279     1
   2270   2278     1
   2270   2273     1
   2270   2274     1
   2270   2275     1
   2271   2278     1
   2271   2273     1
   2271   2274     1
   2271   2275     1
   2280   2287     1
   2280   2288     1
   2281   2286     1
   2281   2284     1
   2281   2285     1
   2281   2290     1
   2281   2291     1
   2281   2293     1
   2282   2286     1
   2282   2284     1
   2282   2285     1
   2282   2290     1
   2282   2291     1
   2282   2293     1
   2283   2290     1
   2283   2291     1
   2283   2293     1
   2284   2289     1
   2284   2292     1
   2284   2287     1
   2284   2288     1
   2285   2289     1
   2285   2292     1
   2285   2287     1
   2285   2288     1
   2294   2301     1
   2294   2302     1
   2295   2300     1
   2295   2298     1
   2295   2299     1
   2295   2304     1
   2295   2305     1
   2295   2307     1
   2296   2300     1
   2296   2298     1
   2296   2299     1
   2296   2304     1
   2296   2305     1
   2296   2307     1
   2297   2304     1
   2297   2305     1
   2297   2307     1
   2298   2306     1
   2298   2301     1
   2298   2302     1
   2298   2303     1
   2299   2306     1
   2299   2301     1
   2299   2302     1
   2299   2303     1
   2308   2315     1
   2308   2316     1
   2309   2314     1
   2309   2312     1
   2309   2313     1
   2309   2318     1
   2309   2319     1
   2309   2321     1
   2310   2314     1
   2310   2312     1
   2310   2313     1
   2310   2318     1
   2310   2319     1
   2310   2321     1
   2311   2318     1
   2311   2319     1
   2311   2321     1
   2312   2317     1
   2312   2320     1
   2312   2315     1
   2312   2316     1
   2313   2317     1
   2313   2320     1
   2313   2315     1
   2313   2316     1
   2322   2329     1
   2322   2330     1
   2323   2328     1
   2323   2326     1
   2323   2327     1
   2323   2332     1
   2323   2333     1
   2323   2335     1
   2324   2328     1
   2324   2326     1
   2324   2327     1
   2324   2332     1
   2324   2333     1
   2324   2335     1
   2325   2332     1
   2325   2333     1
   2325   2335     1
   2326   2334     1
   2326   2329     1
   2326   2330     1
   2326   2331     1
   2327   2334     1
   2327   2329     1
   2327   2330     1
   2327   2331     1
   2336   2343     1
   2336   2344     1
   2337   2342     1
   2337   2340     1
   2337   2341     1
   2337   2346     1
   2337   2347     1
   2337   2349     1
   2338   2342     1
   2338   2340     1
   2338   2341     1
   2338   2346     1
   2338   2347     1
   2338   2349     1
   2339   2346     1
   2339   2347     1
   2339   2349     1
   2340   2345     1
   2340   2348     1
   2340   2343     1
   2340   2344     1
   2341   2345     1
   2341   2348     1
   2341   2343     1
   2341   2344     1
   2350   2357     1
   2350   2358     1
   2351   2356     1
   2351   2354     1
   2351   2355     1
   2351   2360     1
   2351   2361     1
   2351   2363     1
   2352   2356     1
   2352   2354     1
   2352   2355     1
   2352   2360     1
   2352   2361     1
   2352   2363     1
   2353   2360     1
   2353   2361     1
   2353   2363     1
   2354   2362     1
   2354   2357     1
   2354   2358     1
   2354   2359     1
   2355   2362     1
   2355   2357     1
   2355   2358     1
   2355   2359     1
   2364   2371     1
   2364   2372     1
   2365   2370     1
   2365   2368     1
   2365   2369     1
   2365   2374     1
   2365   2375     1
   2365   2377     1
   2366   2370     1
   2366   2368     1
   2366   2369     1
   2366   2374     1
   2366   2375     1
   2366   2377     1
   2367   2374     1
   2367   2375     1
   2367   2377     1
   2368   2373     1
   2368   2376     1
   2368   2371     1
   2368   2372     1
   2369   2373     1
   2369   2376     1
   2369   2371     1
   2369   2372     1
   2378   2385     1
   2378   2386     1
   2379   2384     1
   2379   2382     1
   2379   2383     1
   2379   2388     1
   2379   2389     1
   2379   2391     1
   2380   2384     1
   2380   2382     1
   2380   2383     1
   2380   2388     1
   2380   2389     1
   2380   2391     1
   2381   2388     1
   2381   2389     1
   2381   2391     1
   2382   2390     1
   2382   2385     1
   2382   2386     1
   2382   2387     1
   2383   2390     1
   2383   2385     1
   2383   2386     1
   2383   2387     1
   2392   2399     1
   2392   2400     1
   2393   2398     1
   2393   2396     1
   2393   2397     1
   2393   2402     1
   2393   2403     1
   2393   2405     1
   2394   2398     1
   2394   2396     1
   2394   2397     1
   2394   2402     1
   2394   2403     1
   2394   2405     1
   2395   2402     1
   2395   2403     1
   2395   2405     1
   2396   2401     1
   2396   2404     1
   2396   2399     1
   2396   2400     1
   2397   2401     1
   2397   2404     1
   2397   2399     1
   2397   2400     1
   2406   2413     1
   2406   2414     1
   2407   2412     1
   2407   2410     1
   2407   2411     1
   2407   2416     1
   2407   2417     1
   2407   2419     1
   2408   2412     1
   2408   2410     1
   2408   2411     1
   2408   2416     1
   2408   2417     1
   2408   2419     1
   2409   2416     1
   2409   2417     1
   2409   2419     1
   2410   2418     1
   2410   2413     1
   2410   2414     1
   2410   2415     1
   2411   2418     1
   2411   2413     1
   2411   2414     1
   2411   2415     1
   2420   2427     1
   2420   2428     1
   2421   2426     1
   2421   2424     1
   2421   2425     1
   2421   2430     1
   2421   2431     1
   2421   2433     1
   2422   2426     1
   2422   2424     1
   2422   2425     1
   2422   2430     1
   2422   2431     1
   2422   2433     1
   2423   2430     1
   2423   2431     1
   2423   2433     1
   2424   2429     1
   2424   2432     1
   2424   2427     1
   2424   2428     1
   2425   2429     1
   2425   2432     1
   2425   2427     1
   2425   2428     1
   2434   2441     1
   2434   2442     1
   2435   2440     1
   2435   2438     1
   2435   2439     1
   2435   2444     1
   2435   2445     1
   2435   2447     1
   2436   2440     1
   2436   2438     1
   2436   2439     1
   2436   2444     1
   2436   2445     1
   2436   2447     1
   2437   2444     1
   2437   2445     1
   2437   2447     1
   2438   2446     1
   2438   2441     1
   2438   2442     1
   2438   2443     1
   2439   2446     1
   2439   2441     1
   2439   2442     1
   2439   2443     1
   2448   2455     1
   2448   2456     1
   2449   2454     1
   2449   2452     1
   2449   2453     1
   2449   2458     1
   2449   2459     1
   2449   2461     1
   2450   2454     1
   2450   2452     1
   2450   2453     1
   2450   2458     1
   2450   2459     1
   2450   2461     1
   2451   2458     1
   2451   2459     1
   2451   2461     1
   2452   2457     1
   2452   2460     1
   2452   2455     1
   2452   2456     1
   2453   2457     1
   2453   2460     1
   2453   2455     1
   2453   2456     1
   2462   2469     1
   2462   2470     1
   2463   2468     1
   2463   2466     1
   2463   2467     1
   2463   2472     1
   2463   2473     1
   2463   2475     1
   2464   2468     1
   2464   2466     1
   2464   2467     1
   2464   2472     1
   2464   2473     1
   2464   2475     1
   2465   2472     1
   2465   2473     1
   2465   2475     1
   2466   2474     1
   2466   2469     1
   2466   2470     1
   2466   2471     1
   2467   2474     1
   2467   2469     1
   2467   2470     1
   2467   2471     1
   2476   2483     1
   2476   2484     1
   2477   2482     1
   2477   2480     1
   2477   2481     1
   2477   2486     1
   2477   2487     1
   2477   2489     1
   2478   2482     1
   2478   2480     1
   2478   2481     1
   2478   2486     1
   2478   2487     1
   2478   2489     1
   2479   2486     1
   2479   2487     1
   2479   2489     1
   2480   2485     1
   2480   2488     1
   2480   2483     1
   2480   2484     1
   2481   2485     1
   2481   2488     1
   2481   2483     1
   2481   2484     1
   2490   2497     1
   2490   2498     1
   2491   2496     1
   2491   2494     1
   2491   2495     1
   2491   2500     1
   2491   2501     1
   2491   2503     1
   2492   2496     1
   2492   2494     1
   2492   2495     1
   2492   2500     1
   2492   2501     1
   2492   2503     1
   2493   2500     1
   2493   2501     1
   2493   2503     1
   2494   2502     1
   2494   2497     1
   2494   2498     1
   2494   2499     1
   2495   2502     1
   2495   2497     1
   2495   2498     1
   2495   2499     1
   2504   2511     1
   2504   2512     1
   2505   2510     1
   2505   2508     1
   2505   2509     1
   2505   2514     1
   2505   2515     1
   2505   2517     1
   2506   2510     1
   2506   2508     1
   2506   2509     1
   2506   2514     1
   2506   2515     1
   2506   2517     1
   2507   2514     1
   2507   2515     1
   2507   2517     1
   2508   2513     1
   2508   2516     1
   2508   2511     1
   2508   2512     1
   2509   2513     1
   2509   2516     1
   2509   2511     1
   2509   2512     1
   2518   2525     1
   2518   2526     1
   2519   2524     1
   2519   2522     1
   2519   2523     1
   2519   2528     1
   2519   2529     1
   2519   2531     1
   2520   2524     1
   2520   2522     1
   2520   2523     1
   2520   2528     1
   2520   2529     1
   2520   2531     1
   2521   2528     1
   2521   2529     1
   2521   2531     1
   2522   2530     1
   2522   2525     1
   2522   2526     1
   2522   2527     1
   2523   2530     1
   2523   2525     1
   2523   2526     1
   2523   2527     1
   2532   2539     1
   2532   2540     1
   2533   2538     1
   2533   2536     1
   2533   2537     1
   2533   2542     1
   2533   2543     1
   2533   2545     1
   2534   2538     1
   2534   2536     1
   2534   2537     1
   2534   2542     1
   2534   2543     1
   2534   2545     1
   2535   2542     1
   2535   2543     1
   2535   2545     1
   2536   2541     1
   2536   2544     1
   2536   2539     1
   2536   2540     1
   2537   2541     1
   2537   2544     1
   2537   2539     1
   2537   2540     1
   2546   2553     1
   2546   2554     1
   2547   2552     1
   2547   2550     1
   2547   2551     1
   2547   2556     1
   2547   2557     1
   2547   2559     1
   2548   2552     1
   2548   2550     1
   2548   2551     1
   2548   2556     1
   2548   2557     1
   2548   2559     1
   2549   2556     1
   2549   2557     1
   2549   2559     1
   2550   2558     1
   2550   2553     1
   2550   2554     1
   2550   2555     1
   2551   2558     1
   2551   2553     1
   2551   2554     1
   2551   2555     1
   2560   2567     1
   2560   2568     1
   2561   2566     1
   2561   2564     1
   2561   2565     1
   2561   2570     1
   2561   2571     1
   2561   2573     1
   2562   2566     1
   2562   2564     1
   2562   2565     1
   2562   2570     1
   2562   2571     1
   2562   2573     1
   2563   2570     1
   2563   2571     1
   2563   2573     1
   2564   2569     1
   2564   2572     1
   2564   2567     1
   2564   2568     1
   2565   2569     1
   2565   2572     1
   2565   2567     1
   2565   2568     1
   2574   2581     1
   2574   2582     1
   2575   2580     1
   2575   2578     1
   2575   2579     1
   2575   2584     1
   2575   2585     1
   2575   2587     1
   2576   2580     1
   2576   2578     1
   2576   2579     1
   2576   2584     1
   2576   2585     1
   2576   2587     1
   2577   2584     1
   2577   2585     1
   2577   2587     1
   2578   2586     1
   2578   2581     1
   2578   2582     1
   2578   2583     1
   2579   2586     1
   2579   2581     1
   2579   2582     1
   2579   2583     1
   2588   2595     1
   2588   2596     1
   2589   2594     1
   2589   2592     1
   2589   2593     1
   2589   2598     1
   2589   2599     1
   2589   2601     1
   2590   2594     1
   2590   2592     1
   2590   2593     1
   2590   2598     1
   2590   2599     1
   2590   2601     1
   2591   2598     1
   2591   2599     1
   2591   2601     1
   2592   2597     1
   2592   2600     1
   2592   2595     1
   2592   2596     1
   2593   2597     1
   2593   2600     1
   2593   2595     1
   2593   2596     1
   2602   2609     1
   2602   2610     1
   2603   2608     1
   2603   2606     1
   2603   2607     1
   2603   2612     1
   2603   2613     1
   2603   2615     1
   2604   2608     1
   2604   2606     1
   2604   2607     1
   2604   2612     1
   2604   2613     1
   2604   2615     1
   2605   2612     1
   2605   2613     1
   2605   2615     1
   2606   2614     1
   2606   2609     1
   2606   2610     1
   2606   2611     1
   2607   2614     1
   2607   2609     1
   2607   2610     1
   2607   2611     1
   2616   2623     1
   2616   2624     1
   2617   2622     1
   2617   2620     1
   2617   2621     1
   2617   2626     1
   2617   2627     1
   2617   2629     1
   2618   2622     1
   2618   2620     1
   2618   2621     1
   2618   2626     1
   2618   2627     1
   2618   2629     1
   2619   2626     1
   2619   2627     1
   2619   2629     1
   2620   2625     1
   2620   2628     1
   2620   2623     1
   2620   2624     1
   2621   2625     1
   2621   2628     1
   2621   2623     1
   2621   2624     1
   2630   2637     1
   2630   2638     1
   2631   2636     1
   2631   2634     1
   2631   2635     1
   2631   2640     1
   2631   2641     1
   2631   2643     1
   2632   2636     1
   2632   2634     1
   2632   2635     1
   2632   2640     1
   2632   2641     1
   2632   2643     1
   2633   2640     1
   2633   2641     1
   2633   2643     1
   2634   2642     1
   2634   2637     1
   2634   2638     1
   2634   2639     1
   2635   2642     1
   2635   2637     1
   2635   2638     1
   2635   2639     1
   2644   2651     1
   2644   2652     1
   2645   2650     1
   2645   2648     1
   2645   2649     1
   2645   2654     1
   2645   2655     1
   2645   2657     1
   2646   2650     1
   2646   2648     1
   2646   2649     1
   2646   2654     1
   2646   2655     1
   2646   2657     1
   2647   2654     1
   2647   2655     1
   2647   2657     1
   2648   2653     1
   2648   2656     1
   2648   2651     1
   2648   2652     1
   2649   2653     1
   2649   2656     1
   2649   2651     1
   2649   2652     1
   2658   2665     1
   2658   2666     1
   2659   2664     1
   2659   2662     1
   2659   2663     1
   2659   2668     1
   2659   2669     1
   2659   2671     1
   2660   2664     1
   2660   2662     1
   2660   2663     1
   2660   2668     1
   2660   2669     1
   2660   2671     1
   2661   2668     1
   2661   2669     1
   2661   2671     1
   2662   2670     1
   2662   2665     1
   2662   2666     1
   2662   2667     1
   2663   2670     1
   2663   2665     1
   2663   2666     1
   2663   2667     1
   2672   2679     1
   2672   2680     1
   2673   2678     1
   2673   2676     1
   2673   2677     1
   2673   2682     1
   2673   2683     1
   2673   2685     1
   2674   2678     1
   2674   2676     1
   2674   2677     1
   2674   2682     1
   2674   2683     1
   2674   2685     1
   2675   2682     1
   2675   2683     1
   2675   2685     1
   2676   2681     1
   2676   2684     1
   2676   2679     1
   2676   2680     1
   2677   2681     1
   2677   2684     1
   2677   2679     1
   2677   2680     1
   2686   2693     1
   2686   2694     1
   2687   2692     1
   2687   2690     1
   2687   2691     1
   2687   2696     1
   2687   2697     1
   2687   2699     1
   2688   2692     1
   2688   2690     1
   2688   2691     1
   2688   2696     1
   2688   2697     1
   2688   2699     1
   2689   2696     1
   2689   2697     1
   2689   2699     1
   2690   2698     1
   2690   2693     1
   2690   2694     1
   2690   2695     1
   2691   2698     1
   2691   2693     1
   2691   2694     1
   2691   2695     1
   2700   2707     1
   2700   2708     1
   2701   2706     1
   2701   2704     1
   2701   2705     1
   2701   2710     1
   2701   2711     1
   2701   2713     1
   2702   2706     1
   2702   2704     1
   2702   2705     1
   2702   2710     1
   2702   2711     1
   2702   2713     1
   2703   2710     1
   2703   2711     1
   2703   2713     1
   2704   2709     1
   2704   2712     1
   2704   2707     1
   2704   2708     1
   2705   2709     1
   2705   2712     1
   2705   2707     1
   2705   2708     1
   2714   2721     1
   2714   2722     1
   2715   2720     1
   2715   2718     1
   2715   2719     1
   2715   2724     1
   2715   2725     1
   2715   2727     1
   2716   2720     1
   2716   2718     1
   2716   2719     1
   2716   2724     1
   2716   2725     1
   2716   2727     1
   2717   2724     1
   2717   2725     1
   2717   2727     1
   2718   2726     1
   2718   2721     1
   2718   2722     1
   2718   2723     1
   2719   2726     1
   2719   2721     1
   2719   2722     1
   2719   2723     1
   2728   2735     1
   2728   2736     1
   2729   2734     1
   2729   2732     1
   2729   2733     1
   2729   2738     1
   2729   2739     1
   2729   2741     1
   2730   2734     1
   2730   2732     1
   2730   2733     1
   2730   2738     1
   2730   2739     1
   2730   2741     1
   2731   2738     1
   2731   2739     1
   2731   2741     1
   2732   2737     1
   2732   2740     1
   2732   2735     1
   2732   2736     1
   2733   2737     1
   2733   2740     1
   2733   2735     1
   2733   2736     1
   2742   2749     1
   2742   2750     1
   2743   2748     1
   2743   2746     1
   2743   2747     1
   2743   2752     1
   2743   2753     1
   2743   2755     1
   2744   2748     1
   2744   2746     1
   2744   2747     1
   2744   2752     1
   2744   2753     1
   2744   2755     1
   2745   2752     1
   2745   2753     1
   2745   2755     1
   2746   2754     1
   2746   2749     1
   2746   2750     1
   2746   2751     1
   2747   2754     1
   2747   2749     1
   2747   2750     1
   2747   2751     1

[ angles ]
;    ai     aj     ak funct         c0         c1         c2         c3
      1      2      8     1   107.9700462 569.024000
      1      5     11     1   107.9700462 569.024000
      2      1      5     1   112.4800480 524.673600
      2      8     14     1   111.5100476 526.347200
      5     11     17     1   111.5100476 526.347200
      8     14     20     1   114.2100488 537.225600
     11     17     21     1   114.2100488 537.225600
     14     20     28     1   109.6600471 523.836800
     14     20     31     1   109.6600471 523.836800
     17     21     22     1   109.6600471 523.836800
     17     21     25     1   109.6600471 523.836800
     20     28     40     1   114.2100488 537.225600
     20     31     43     1   114.2100488 537.225600
     21     22     34     1   114.2100488 537.225600
     21     25     37     1   114.2100488 537.225600
     22     21     25     1   109.6600471 523.836800
     22     34     55     1   111.5100476 526.347200
     25     37     52     1   111.5100476 526.347200
     28     20     31     1   109.6600471 523.836800
     28     40     49     1   111.5100476 526.347200
     31     43     46     1   111.5100476 526.347200
     34     55    178     1   107.9700462 569.024000
     37     52    148     1   107.9700462 569.024000
     40     49    118     1   107.9700462 569.024000
     43     46     88     1   107.9700462 569.024000
     46     88     79     1   112.4800480 524.673600
     49    118    109     1   112.4800480 524.673600
     52    148    139     1   112.4800480 524.673600
     55    178    169     1   112.4800480 524.673600
     60     61     73     1   114.2100488 537.225600
     60     64     76     1   114.2100488 537.225600
     60     67     70     1   114.2100488 537.225600
     61     60     64     1   109.6600471 523.836800
     61     60     67     1   109.6600471 523.836800
     61     73     85     1   111.5100476 526.347200
     64     60     67     1   109.6600471 523.836800
     64     76     82     1   111.5100476 526.347200
     67     70     79     1   111.5100476 526.347200
     70     79     88     1   107.9700462 569.024000
     73     85    238     1   107.9700462 569.024000
     76     82    208     1   107.9700462 569.024000
     82    208    199     1   112.4800480 524.673600
     85    238    229     1   112.4800480 524.673600
     90     91    103     1   114.2100488 537.225600
     90     94    106     1   114.2100488 537.225600
     90     97    100     1   114.2100488 537.225600
     91     90     94     1   109.6600471 523.836800
     91     90     97     1   109.6600471 523.836800
     91    103    115     1   111.5100476 526.347200
     94     90     97     1   109.6600471 523.836800
     94    106    112     1   111.5100476 526.347200
     97    100    109     1   111.5100476 526.347200
    100    109    118     1   107.9700462 569.024000
    103    115    298     1   107.9700462 569.024000
    106    112    268     1   107.9700462 569.024000
    112    268    259     1   112.4800480 524.673600
    115    298    289     1   112.4800480 524.673600
    120    121    133     1   114.2100488 537.225600
    120    124    136     1   114.2100488 537.225600
    120    127    130     1   114.2100488 537.225600
    121    120    124     1   109.6600471 523.836800
    121    120    127     1   109.6600471 523.836800
    121    133    145     1   111.5100476 526.347200
    124    120    127     1   109.6600471 523.836800
    124    136    142     1   111.5100476 526.347200
    127    130    139     1   111.5100476 526.347200
    130    139    148     1   107.9700462 569.024000
    133    145    358     1   107.9700462 569.024000
    136    142    328     1   107.9700462 569.024000
    142    328    319     1   112.4800480 524.673600
    145    358    349     1   112.4800480 524.673600
    150    151    163     1   114.2100488 537.225600
    150    154    166     1   114.2100488 537.225600
    150    157    160     1   114.2100488 537.225600
    151    150    154     1   109.6600471 523.836800
    151    150    157     1   109.6600471 523.836800
    151    163    175     1   111.5100476 526.347200
    154    150    157     1   109.6600471 523.836800
    154    166    172     1   111.5100476 526.347200
    157    160    169     1   111.5100476 526.347200
    160    169    178     1   107.9700462 569.024000
    163    175    418     1   107.9700462 569.024000
    166    172    388     1   107.9700462 569.024000
    172    388    379     1   112.4800480 524.673600
    175    418    409     1   112.4800480 524.673600
    180    181    193     1   114.2100488 537.225600
    180    184    196     1   114.2100488 537.225600
    180    187    190     1   114.2100488 537.225600
    181    180    184     1   109.6600471 523.836800
    181    180    187     1   109.6600471 523.836800
    181    193    205     1   111.5100476 526.347200
    184    180    187     1   109.6600471 523.836800
    184    196    202     1   111.5100476 526.347200
    187    190    199     1   111.5100476 526.347200
    190    199    208     1   107.9700462 569.024000
    193    205    478     1   107.9700462 569.024000
    196    202    448     1   107.9700462 569.024000
    202    448    439     1   112.4800480 524.673600
    205    478    469     1   112.4800480 524.673600
    210    211    223     1   114.2100488 537.225600
    210    214    226     1   114.2100488 537.225600
    210    217    220     1   114.2100488 537.225600
    211    210    214     1   109.6600471 523.836800
    211    210    217     1   109.6600471 523.836800
    211    223    235     1   111.5100476 526.347200
    214    210    217     1   109.6600471 523.836800
    214    226    232     1   111.5100476 526.347200
    217    220    229     1   111.5100476 526.347200
    220    229    238     1   107.9700462 569.024000
    223    235    538     1   107.9700462 569.024000
    226    232    508     1   107.9700462 569.024000
    232    508    499     1   112.4800480 524.673600
    235    538    529     1   112.4800480 524.673600
    240    241    253     1   114.2100488 537.225600
    240    244    256     1   114.2100488 537.225600
    240    247    250     1   114.2100488 537.225600
    241    240    244     1   109.6600471 523.836800
    241    240    247     1   109.6600471 523.836800
    241    253    265     1   111.5100476 526.347200
    244    240    247     1   109.6600471 523.836800
    244    256    262     1   111.5100476 526.347200
    247    250    259     1   111.5100476 526.347200
    250    259    268     1   107.9700462 569.024000
    253    265    598     1   107.9700462 569.024000
    256    262    568     1   107.9700462 569.024000
    262    568    559     1   112.4800480 524.673600
    265    598    589     1   112.4800480 524.673600
    270    271    283     1   114.2100488 537.225600
    270    274    286     1   114.2100488 537.225600
    270    277    280     1   114.2100488 537.225600
    271    270    274     1   109.6600471 523.836800
    271    270    277     1   109.6600471 523.836800
    271    283    295     1   111.5100476 526.347200
    274    270    277     1   109.6600471 523.836800
    274    286    292     1   111.5100476 526.347200
    277    280    289     1   111.5100476 526.347200
    280    289    298     1   107.9700462 569.024000
    283    295    658     1   107.9700462 569.024000
    286    292    628     1   107.9700462 569.024000
    292    628    619     1   112.4800480 524.673600
    295    658    649     1   112.4800480 524.673600
    300    301    313     1   114.2100488 537.225600
    300    304    316     1   114.2100488 537.225600
    300    307    310     1   114.2100488 537.225600
    301    300    304     1   109.6600471 523.836800
    301    300    307     1   109.6600471 523.836800
    301    313    325     1   111.5100476 526.347200
    304    300    307     1   109.6600471 523.836800
    304    316    322     1   111.5100476 526.347200
    307    310    319     1   111.5100476 526.347200
    310    319    328     1   107.9700462 569.024000
    313    325    718     1   107.9700462 569.024000
    316    322    688     1   107.9700462 569.024000
    322    688    679     1   112.4800480 524.673600
    325    718    709     1   112.4800480 524.673600
    330    331    343     1   114.2100488 537.225600
    330    334    346     1   114.2100488 537.225600
    330    337    340     1   114.2100488 537.225600
    331    330    334     1   109.6600471 523.836800
    331    330    337     1   109.6600471 523.836800
    331    343    355     1   111.5100476 526.347200
    334    330    337     1   109.6600471 523.836800
    334    346    352     1   111.5100476 526.347200
    337    340    349     1   111.5100476 526.347200
    340    349    358     1   107.9700462 569.024000
    343    355    778     1   107.9700462 569.024000
    346    352    748     1   107.9700462 569.024000
    352    748    739     1   112.4800480 524.673600
    355    778    769     1   112.4800480 524.673600
    360    361    373     1   114.2100488 537.225600
    360    364    376     1   114.2100488 537.225600
    360    367    370     1   114.2100488 537.225600
    361    360    364     1   109.6600471 523.836800
    361    360    367     1   109.6600471 523.836800
    361    373    385     1   111.5100476 526.347200
    364    360    367     1   109.6600471 523.836800
    364    376    382     1   111.5100476 526.347200
    367    370    379     1   111.5100476 526.347200
    370    379    388     1   107.9700462 569.024000
    373    385    838     1   107.9700462 569.024000
    376    382    808     1   107.9700462 569.024000
    382    808    799     1   112.4800480 524.673600
    385    838    829     1   112.4800480 524.673600
    390    391    403     1   114.2100488 537.225600
    390    394    406     1   114.2100488 537.225600
    390    397    400     1   114.2100488 537.225600
    391    390    394     1   109.6600471 523.836800
    391    390    397     1   109.6600471 523.836800
    391    403    415     1   111.5100476 526.347200
    394    390    397     1   109.6600471 523.836800
    394    406    412     1   111.5100476 526.347200
    397    400    409     1   111.5100476 526.347200
    400    409    418     1   107.9700462 569.024000
    403    415    898     1   107.9700462 569.024000
    406    412    868     1   107.9700462 569.024000
    412    868    859     1   112.4800480 524.673600
    415    898    889     1   112.4800480 524.673600
    420    421    433     1   114.2100488 537.225600
    420    424    436     1   114.2100488 537.225600
    420    427    430     1   114.2100488 537.225600
    421    420    424     1   109.6600471 523.836800
    421    420    427     1   109.6600471 523.836800
    421    433    445     1   111.5100476 526.347200
    424    420    427     1   109.6600471 523.836800
    424    436    442     1   111.5100476 526.347200
    427    430    439     1   111.5100476 526.347200
    430    439    448     1   107.9700462 569.024000
    433    445    958     1   107.9700462 569.024000
    436    442    928     1   107.9700462 569.024000
    442    928    919     1   112.4800480 524.673600
    445    958    949     1   112.4800480 524.673600
    450    451    463     1   114.2100488 537.225600
    450    454    466     1   114.2100488 537.225600
    450    457    460     1   114.2100488 537.225600
    451    450    454     1   109.6600471 523.836800
    451    450    457     1   109.6600471 523.836800
    451    463    475     1   111.5100476 526.347200
    454    450    457     1   109.6600471 523.836800
    454    466    472     1   111.5100476 526.347200
    457    460    469     1   111.5100476 526.347200
    460    469    478     1   107.9700462 569.024000
    463    475   1018     1   107.9700462 569.024000
    466    472    988     1   107.9700462 569.024000
    472    988    979     1   112.4800480 524.673600
    475   1018   1009     1   112.4800480 524.673600
    480    481    493     1   114.2100488 537.225600
    480    484    496     1   114.2100488 537.225600
    480    487    490     1   114.2100488 537.225600
    481    480    484     1   109.6600471 523.836800
    481    480    487     1   109.6600471 523.836800
    481    493    505     1   111.5100476 526.347200
    484    480    487     1   109.6600471 523.836800
    484    496    502     1   111.5100476 526.347200
    487    490    499     1   111.5100476 526.347200
    490    499    508     1   107.9700462 569.024000
    493    505   1078     1   107.9700462 569.024000
    496    502   1048     1   107.9700462 569.024000
    502   1048   1039     1   112.4800480 524.673600
    505   1078   1069     1   112.4800480 524.673600
    510    511    523     1   114.2100488 537.225600
    510    514    526     1   114.2100488 537.225600
    510    517    520     1   114.2100488 537.225600
    511    510    514     1   109.6600471 523.836800
    511    510    517     1   109.6600471 523.836800
    511    523    535     1   111.5100476 526.347200
    514    510    517     1   109.6600471 523.836800
    514    526    532     1   111.5100476 526.347200
    517    520    529     1   111.5100476 526.347200
    520    529    538     1   107.9700462 569.024000
    523    535   1138     1   107.9700462 569.024000
    526    532   1108     1   107.9700462 569.024000
    532   1108   1099     1   112.4800480 524.673600
    535   1138   1129     1   112.4800480 524.673600
    540    541    553     1   114.2100488 537.225600
    540    544    556     1   114.2100488 537.225600
    540    547    550     1   114.2100488 537.225600
    541    540    544     1   109.6600471 523.836800
    541    540    547     1   109.6600471 523.836800
    541    553    565     1   111.5100476 526.347200
    544    540    547     1   109.6600471 523.836800
    544    556    562     1   111.5100476 526.347200
    547    550    559     1   111.5100476 526.347200
    550    559    568     1   107.9700462 569.024000
    553    565   1198     1   107.9700462 569.024000
    556    562   1168     1   107.9700462 569.024000
    562   1168   1159     1   112.4800480 524.673600
    565   1198   1189     1   112.4800480 524.673600
    570    571    583     1   114.2100488 537.225600
    570    574    586     1   114.2100488 537.225600
    570    577    580     1   114.2100488 537.225600
    571    570    574     1   109.6600471 523.836800
    571    570    577     1   109.6600471 523.836800
    571    583    595     1   111.5100476 526.347200
    574    570    577     1   109.6600471 523.836800
    574    586    592     1   111.5100476 526.347200
    577    580    589     1   111.5100476 526.347200
    580    589    598     1   107.9700462 569.024000
    583    595   1258     1   107.9700462 569.024000
    586    592   1228     1   107.9700462 569.024000
    592   1228   1219     1   112.4800480 524.673600
    595   1258   1249     1   112.4800480 524.673600
    600    601    613     1   114.2100488 537.225600
    600    604    616     1   114.2100488 537.225600
    600    607    610     1   114.2100488 537.225600
    601    600    604     1   109.6600471 523.836800
    601    600    607     1   109.6600471 523.836800
    601    613    625     1   111.5100476 526.347200
    604    600    607     1   109.6600471 523.836800
    604    616    622     1   111.5100476 526.347200
    607    610    619     1   111.5100476 526.347200
    610    619    628     1   107.9700462 569.024000
    613    625   1318     1   107.9700462 569.024000
    616    622   1288     1   107.9700462 569.024000
    622   1288   1279     1   112.4800480 524.673600
    625   1318   1309     1   112.4800480 524.673600
    630    631    643     1   114.2100488 537.225600
    630    634    646     1   114.2100488 537.225600
    630    637    640     1   114.2100488 537.225600
    631    630    634     1   109.6600471 523.836800
    631    630    637     1   109.6600471 523.836800
    631    643    655     1   111.5100476 526.347200
    634    630    637     1   109.6600471 523.836800
    634    646    652     1   111.5100476 526.347200
    637    640    649     1   111.5100476 526.347200
    640    649    658     1   107.9700462 569.024000
    643    655   1378     1   107.9700462 569.024000
    646    652   1348     1   107.9700462 569.024000
    652   1348   1339     1   112.4800480 524.673600
    655   1378   1369     1   112.4800480 524.673600
    660    661    673     1   114.2100488 537.225600
    660    664    676     1   114.2100488 537.225600
    660    667    670     1   114.2100488 537.225600
    661    660    664     1   109.6600471 523.836800
    661    660    667     1   109.6600471 523.836800
    661    673    685     1   111.5100476 526.347200
    664    660    667     1   109.6600471 523.836800
    664    676    682     1   111.5100476 526.347200
    667    670    679     1   111.5100476 526.347200
    670    679    688     1   107.9700462 569.024000
    673    685   1438     1   107.9700462 569.024000
    676    682   1408     1   107.9700462 569.024000
    682   1408   1399     1   112.4800480 524.673600
    685   1438   1429     1   112.4800480 524.673600
    690    691    703     1   114.2100488 537.225600
    690    694    706     1   114.2100488 537.225600
    690    697    700     1   114.2100488 537.225600
    691    690    694     1   109.6600471 523.836800
    691    690    697     1   109.6600471 523.836800
    691    703    715     1   111.5100476 526.347200
    694    690    697     1   109.6600471 523.836800
    694    706    712     1   111.5100476 526.347200
    697    700    709     1   111.5100476 526.347200
    700    709    718     1   107.9700462 569.024000
    703    715   1498     1   107.9700462 569.024000
    706    712   1468     1   107.9700462 569.024000
    712   1468   1459     1   112.4800480 524.673600
    715   1498   1489     1   112.4800480 524.673600
    720    721    733     1   114.2100488 537.225600
    720    724    736     1   114.2100488 537.225600
    720    727    730     1   114.2100488 537.225600
    721    720    724     1   109.6600471 523.836800
    721    720    727     1   109.6600471 523.836800
    721    733    745     1   111.5100476 526.347200
    724    720    727     1   109.6600471 523.836800
    724    736    742     1   111.5100476 526.347200
    727    730    739     1   111.5100476 526.347200
    730    739    748     1   107.9700462 569.024000
    733    745   1558     1   107.9700462 569.024000
    736    742   1528     1   107.9700462 569.024000
    742   1528   1519     1   112.4800480 524.673600
    745   1558   1549     1   112.4800480 524.673600
    750    751    763     1   114.2100488 537.225600
    750    754    766     1   114.2100488 537.225600
    750    757    760     1   114.2100488 537.225600
    751    750    754     1   109.6600471 523.836800
    751    750    757     1   109.6600471 523.836800
    751    763    775     1   111.5100476 526.347200
    754    750    757     1   109.6600471 523.836800
    754    766    772     1   111.5100476 526.347200
    757    760    769     1   111.5100476 526.347200
    760    769    778     1   107.9700462 569.024000
    763    775   1618     1   107.9700462 569.024000
    766    772   1588     1   107.9700462 569.024000
    772   1588   1579     1   112.4800480 524.673600
    775   1618   1609     1   112.4800480 524.673600
    780    781    793     1   114.2100488 537.225600
    780    784    796     1   114.2100488 537.225600
    780    787    790     1   114.2100488 537.225600
    781    780    784     1   109.6600471 523.836800
    781    780    787     1   109.6600471 523.836800
    781    793    805     1   111.5100476 526.347200
    784    780    787     1   109.6600471 523.836800
    784    796    802     1   111.5100476 526.347200
    787    790    799     1   111.5100476 526.347200
    790    799    808     1   107.9700462 569.024000
    793    805   1678     1   107.9700462 569.024000
    796    802   1648     1   107.9700462 569.024000
    802   1648   1639     1   112.4800480 524.673600
    805   1678   1669     1   112.4800480 524.673600
    810    811    823     1   114.2100488 537.225600
    810    814    826     1   114.2100488 537.225600
    810    817    820     1   114.2100488 537.225600
    811    810    814     1   109.6600471 523.836800
    811    810    817     1   109.6600471 523.836800
    811    823    835     1   111.5100476 526.347200
    814    810    817     1   109.6600471 523.836800
    814    826    832     1   111.5100476 526.347200
    817    820    829     1   111.5100476 526.347200
    820    829    838     1   107.9700462 569.024000
    823    835   1738     1   107.9700462 569.024000
    826    832   1708     1   107.9700462 569.024000
    832   1708   1699     1   112.4800480 524.673600
    835   1738   1729     1   112.4800480 524.673600
    840    841    853     1   114.2100488 537.225600
    840    844    856     1   114.2100488 537.225600
    840    847    850     1   114.2100488 537.225600
    841    840    844     1   109.6600471 523.836800
    841    840    847     1   109.6600471 523.836800
    841    853    865     1   111.5100476 526.347200
    844    840    847     1   109.6600471 523.836800
    844    856    862     1   111.5100476 526.347200
    847    850    859     1   111.5100476 526.347200
    850    859    868     1   107.9700462 569.024000
    853    865   1798     1   107.9700462 569.024000
    856    862   1768     1   107.9700462 569.024000
    862   1768   1759     1   112.4800480 524.673600
    865   1798   1789     1   112.4800480 524.673600
    870    871    883     1   114.2100488 537.225600
    870    874    886     1   114.2100488 537.225600
    870    877    880     1   114.2100488 537.225600
    871    870    874     1   109.6600471 523.836800
    871    870    877     1   109.6600471 523.836800
    871    883    895     1   111.5100476 526.347200
    874    870    877     1   109.6600471 523.836800
    874    886    892     1   111.5100476 526.347200
    877    880    889     1   111.5100476 526.347200
    880    889    898     1   107.9700462 569.024000
    883    895   1858     1   107.9700462 569.024000
    886    892   1828     1   107.9700462 569.024000
    892   1828   1819     1   112.4800480 524.673600
    895   1858   1849     1   112.4800480 524.673600
    900    901    913     1   114.2100488 537.225600
    900    904    916     1   114.2100488 537.225600
    900    907    910     1   114.2100488 537.225600
    901    900    904     1   109.6600471 523.836800
    901    900    907     1   109.6600471 523.836800
    901    913    925     1   111.5100476 526.347200
    904    900    907     1   109.6600471 523.836800
    904    916    922     1   111.5100476 526.347200
    907    910    919     1   111.5100476 526.347200
    910    919    928     1   107.9700462 569.024000
    913    925   1886     1   107.9700462 569.024000
    916    922   1872     1   107.9700462 569.024000
    922   1872   1866     1   112.4800480 524.673600
    925   1886   1880     1   112.4800480 524.673600
    930    931    943     1   114.2100488 537.225600
    930    934    946     1   114.2100488 537.225600
    930    937    940     1   114.2100488 537.225600
    931    930    934     1   109.6600471 523.836800
    931    930    937     1   109.6600471 523.836800
    931    943    955     1   111.5100476 526.347200
    934    930    937     1   109.6600471 523.836800
    934    946    952     1   111.5100476 526.347200
    937    940    949     1   111.5100476 526.347200
    940    949    958     1   107.9700462 569.024000
    943    955   1914     1   107.9700462 569.024000
    946    952   1900     1   107.9700462 569.024000
    952   1900   1894     1   112.4800480 524.673600
    955   1914   1908     1   112.4800480 524.673600
    960    961    973     1   114.2100488 537.225600
    960    964    976     1   114.2100488 537.225600
    960    967    970     1   114.2100488 537.225600
    961    960    964     1   109.6600471 523.836800
    961    960    967     1   109.6600471 523.836800
    961    973    985     1   111.5100476 526.347200
    964    960    967     1   109.6600471 523.836800
    964    976    982     1   111.5100476 526.347200
    967    970    979     1   111.5100476 526.347200
    970    979    988     1   107.9700462 569.024000
    973    985   1942     1   107.9700462 569.024000
    976    982   1928     1   107.9700462 569.024000
    982   1928   1922     1   112.4800480 524.673600
    985   1942   1936     1   112.4800480 524.673600
    990    991   1003     1   114.2100488 537.225600
    990    994   1006     1   114.2100488 537.225600
    990    997   1000     1   114.2100488 537.225600
    991    990    994     1   109.6600471 523.836800
    991    990    997     1   109.6600471 523.836800
    991   1003   1015     1   111.5100476 526.347200
    994    990    997     1   109.6600471 523.836800
    994   1006   1012     1   111.5100476 526.347200
    997   1000   1009     1   111.5100476 526.347200
   1000   1009   1018     1   107.9700462 569.024000
   1003   1015   1970     1   107.9700462 569.024000
   1006   1012   1956     1   107.9700462 569.024000
   1012   1956   1950     1   112.4800480 524.673600
   1015   1970   1964     1   112.4800480 524.673600
   1020   1021   1033     1   114.2100488 537.225600
   1020   1024   1036     1   114.2100488 537.225600
   1020   1027   1030     1   114.2100488 537.225600
   1021   1020   1024     1   109.6600471 523.836800
   1021   1020   1027     1   109.6600471 523.836800
   1021   1033   1045     1   111.5100476 526.347200
   1024   1020   1027     1   109.6600471 523.836800
   1024   1036   1042     1   111.5100476 526.347200
   1027   1030   1039     1   111.5100476 526.347200
   1030   1039   1048     1   107.9700462 569.024000
   1033   1045   1998     1   107.9700462 569.024000
   1036   1042   1984     1   107.9700462 569.024000
   1042   1984   1978     1   112.4800480 524.673600
   1045   1998   1992     1   112.4800480 524.673600
   1050   1051   1063     1   114.2100488 537.225600
   1050   1054   1066     1   114.2100488 537.225600
   1050   1057   1060     1   114.2100488 537.225600
   1051   1050   1054     1   109.6600471 523.836800
   1051   1050   1057     1   109.6600471 523.836800
   1051   1063   1075     1   111.5100476 526.347200
   1054   1050   1057     1   109.6600471 523.836800
   1054   1066   1072     1   111.5100476 526.347200
   1057   1060   1069     1   111.5100476 526.347200
   1060   1069   1078     1   107.9700462 569.024000
   1063   1075   2026     1   107.9700462 569.024000
   1066   1072   2012     1   107.9700462 569.024000
   1072   2012   2006     1   112.4800480 524.673600
   1075   2026   2020     1   112.4800480 524.673600
   1080   1081   1093     1   114.2100488 537.225600
   1080   1084   1096     1   114.2100488 537.225600
   1080   1087   1090     1   114.2100488 537.225600
   1081   1080   1084     1   109.6600471 523.836800
   1081   1080   1087     1   109.6600471 523.836800
   1081   1093   1105     1   111.5100476 526.347200
   1084   1080   1087     1   109.6600471 523.836800
   1084   1096   1102     1   111.5100476 526.347200
   1087   1090   1099     1   111.5100476 526.347200
   1090   1099   1108     1   107.9700462 569.024000
   1093   1105   2054     1   107.9700462 569.024000
   1096   1102   2040     1   107.9700462 569.024000
   1102   2040   2034     1   112.4800480 524.673600
   1105   2054   2048     1   112.4800480 524.673600
   1110   1111   1123     1   114.2100488 537.225600
   1110   1114   1126     1   114.2100488 537.225600
   1110   1117   1120     1   114.2100488 537.225600
   1111   1110   1114     1   109.6600471 523.836800
   1111   1110   1117     1   109.6600471 523.836800
   1111   1123   1135     1   111.5100476 526.347200
   1114   1110   1117     1   109.6600471 523.836800
   1114   1126   1132     1   111.5100476 526.347200
   1117   1120   1129     1   111.5100476 526.347200
   1120   1129   1138     1   107.9700462 569.024000
   1123   1135   2082     1   107.9700462 569.024000
   1126   1132   2068     1   107.9700462 569.024000
   1132   2068   2062     1   112.4800480 524.673600
   1135   2082   2076     1   112.4800480 524.673600
   1140   1141   1153     1   114.2100488 537.225600
   1140   1144   1156     1   114.2100488 537.225600
   1140   1147   1150     1   114.2100488 537.225600
   1141   1140   1144     1   109.6600471 523.836800
   1141   1140   1147     1   109.6600471 523.836800
   1141   1153   1165     1   111.5100476 526.347200
   1144   1140   1147     1   109.6600471 523.836800
   1144   1156   1162     1   111.5100476 526.347200
   1147   1150   1159     1   111.5100476 526.347200
   1150   1159   1168     1   107.9700462 569.024000
   1153   1165   2110     1   107.9700462 569.024000
   1156   1162   2096     1   107.9700462 569.024000
   1162   2096   2090     1   112.4800480 524.673600
   1165   2110   2104     1   112.4800480 524.673600
   1170   1171   1183     1   114.2100488 537.225600
   1170   1174   1186     1   114.2100488 537.225600
   1170   1177   1180     1   114.2100488 537.225600
   1171   1170   1174     1   109.6600471 523.836800
   1171   1170   1177     1   109.6600471 523.836800
   1171   1183   1195     1   111.5100476 526.347200
   1174   1170   1177     1   109.6600471 523.836800
   1174   1186   1192     1   111.5100476 526.347200
   1177   1180   1189     1   111.5100476 526.347200
   1180   1189   1198     1   107.9700462 569.024000
   1183   1195   2138     1   107.9700462 569.024000
   1186   1192   2124     1   107.9700462 569.024000
   1192   2124   2118     1   112.4800480 524.673600
   1195   2138   2132     1   112.4800480 524.673600
   1200   1201   1213     1   114.2100488 537.225600
   1200   1204   1216     1   114.2100488 537.225600
   1200   1207   1210     1   114.2100488 537.225600
   1201   1200   1204     1   109.6600471 523.836800
   1201   1200   1207     1   109.6600471 523.836800
   1201   1213   1225     1   111.5100476 526.347200
   1204   1200   1207     1   109.6600471 523.836800
   1204   1216   1222     1   111.5100476 526.347200
   1207   1210   1219     1   111.5100476 526.347200
   1210   1219   1228     1   107.9700462 569.024000
   1213   1225   2166     1   107.9700462 569.024000
   1216   1222   2152     1   107.9700462 569.024000
   1222   2152   2146     1   112.4800480 524.673600
   1225   2166   2160     1   112.4800480 524.673600
   1230   1231   1243     1   114.2100488 537.225600
   1230   1234   1246     1   114.2100488 537.225600
   1230   1237   1240     1   114.2100488 537.225600
   1231   1230   1234     1   109.6600471 523.836800
   1231   1230   1237     1   109.6600471 523.836800
   1231   1243   1255     1   111.5100476 526.347200
   1234   1230   1237     1   109.6600471 523.836800
   1234   1246   1252     1   111.5100476 526.347200
   1237   1240   1249     1   111.5100476 526.347200
   1240   1249   1258     1   107.9700462 569.024000
   1243   1255   2194     1   107.9700462 569.024000
   1246   1252   2180     1   107.9700462 569.024000
   1252   2180   2174     1   112.4800480 524.673600
   1255   2194   2188     1   112.4800480 524.673600
   1260   1261   1273     1   114.2100488 537.225600
   1260   1264   1276     1   114.2100488 537.225600
   1260   1267   1270     1   114.2100488 537.225600
   1261   1260   1264     1   109.6600471 523.836800
   1261   1260   1267     1   109.6600471 523.836800
   1261   1273   1285     1   111.5100476 526.347200
   1264   1260   1267     1   109.6600471 523.836800
   1264   1276   1282     1   111.5100476 526.347200
   1267   1270   1279     1   111.5100476 526.347200
   1270   1279   1288     1   107.9700462 569.024000
   1273   1285   2222     1   107.9700462 569.024000
   1276   1282   2208     1   107.9700462 569.024000
   1282   2208   2202     1   112.4800480 524.673600
   1285   2222   2216     1   112.4800480 524.673600
   1290   1291   1303     1   114.2100488 537.225600
   1290   1294   1306     1   114.2100488 537.225600
   1290   1297   1300     1   114.2100488 537.225600
   1291   1290   1294     1   109.6600471 523.836800
   1291   1290   1297     1   109.6600471 523.836800
   1291   1303   1315     1   111.5100476 526.347200
   1294   1290   1297     1   109.6600471 523.836800
   1294   1306   1312     1   111.5100476 526.347200
   1297   1300   1309     1   111.5100476 526.347200
   1300   1309   1318     1   107.9700462 569.024000
   1303   1315   2250     1   107.9700462 569.024000
   1306   1312   2236     1   107.9700462 569.024000
   1312   2236   2230     1   112.4800480 524.673600
   1315   2250   2244     1   112.4800480 524.673600
   1320   1321   1333     1   114.2100488 537.225600
   1320   1324   1336     1   114.2100488 537.225600
   1320   1327   1330     1   114.2100488 537.225600
   1321   1320   1324     1   109.6600471 523.836800
   1321   1320   1327     1   109.6600471 523.836800
   1321   1333   1345     1   111.5100476 526.347200
   1324   1320   1327     1   109.6600471 523.836800
   1324   1336   1342     1   111.5100476 526.347200
   1327   1330   1339     1   111.5100476 526.347200
   1330   1339   1348     1   107.9700462 569.024000
   1333   1345   2278     1   107.9700462 569.024000
   1336   1342   2264     1   107.9700462 569.024000
   1342   2264   2258     1   112.4800480 524.673600
   1345   2278   2272     1   112.4800480 524.673600
   1350   1351   1363     1   114.2100488 537.225600
   1350   1354   1366     1   114.2100488 537.225600
   1350   1357   1360     1   114.2100488 537.225600
   1351   1350   1354     1   109.6600471 523.836800
   1351   1350   1357     1   109.6600471 523.836800
   1351   1363   1375     1   111.5100476 526.347200
   1354   1350   1357     1   109.6600471 523.836800
   1354   1366   1372     1   111.5100476 526.347200
   1357   1360   1369     1   111.5100476 526.347200
   1360   1369   1378     1   107.9700462 569.024000
   1363   1375   2306     1   107.9700462 569.024000
   1366   1372   2292     1   107.9700462 569.024000
   1372   2292   2286     1   112.4800480 524.673600
   1375   2306   2300     1   112.4800480 524.673600
   1380   1381   1393     1   114.2100488 537.225600
   1380   1384   1396     1   114.2100488 537.225600
   1380   1387   1390     1   114.2100488 537.225600
   1381   1380   1384     1   109.6600471 523.836800
   1381   1380   1387     1   109.6600471 523.836800
   1381   1393   1405     1   111.5100476 526.347200
   1384   1380   1387     1   109.6600471 523.836800
   1384   1396   1402     1   111.5100476 526.347200
   1387   1390   1399     1   111.5100476 526.347200
   1390   1399   1408     1   107.9700462 569.024000
   1393   1405   2334     1   107.9700462 569.024000
   1396   1402   2320     1   107.9700462 569.024000
   1402   2320   2314     1   112.4800480 524.673600
   1405   2334   2328     1   112.4800480 524.673600
   1410   1411   1423     1   114.2100488 537.225600
   1410   1414   1426     1   114.2100488 537.225600
   1410   1417   1420     1   114.2100488 537.225600
   1411   1410   1414     1   109.6600471 523.836800
   1411   1410   1417     1   109.6600471 523.836800
   1411   1423   1435     1   111.5100476 526.347200
   1414   1410   1417     1   109.6600471 523.836800
   1414   1426   1432     1   111.5100476 526.347200
   1417   1420   1429     1   111.5100476 526.347200
   1420   1429   1438     1   107.9700462 569.024000
   1423   1435   2362     1   107.9700462 569.024000
   1426   1432   2348     1   107.9700462 569.024000
   1432   2348   2342     1   112.4800480 524.673600
   1435   2362   2356     1   112.4800480 524.673600
   1440   1441   1453     1   114.2100488 537.225600
   1440   1444   1456     1   114.2100488 537.225600
   1440   1447   1450     1   114.2100488 537.225600
   1441   1440   1444     1   109.6600471 523.836800
   1441   1440   1447     1   109.6600471 523.836800
   1441   1453   1465     1   111.5100476 526.347200
   1444   1440   1447     1   109.6600471 523.836800
   1444   1456   1462     1   111.5100476 526.347200
   1447   1450   1459     1   111.5100476 526.347200
   1450   1459   1468     1   107.9700462 569.024000
   1453   1465   2390     1   107.9700462 569.024000
   1456   1462   2376     1   107.9700462 569.024000
   1462   2376   2370     1   112.4800480 524.673600
   1465   2390   2384     1   112.4800480 524.673600
   1470   1471   1483     1   114.2100488 537.225600
   1470   1474   1486     1   114.2100488 537.225600
   1470   1477   1480     1   114.2100488 537.225600
   1471   1470   1474     1   109.6600471 523.836800
   1471   1470   1477     1   109.6600471 523.836800
   1471   1483   1495     1   111.5100476 526.347200
   1474   1470   1477     1   109.6600471 523.836800
   1474   1486   1492     1   111.5100476 526.347200
   1477   1480   1489     1   111.5100476 526.347200
   1480   1489   1498     1   107.9700462 569.024000
   1483   1495   2418     1   107.9700462 569.024000
   1486   1492   2404     1   107.9700462 569.024000
   1492   2404   2398     1   112.4800480 524.673600
   1495   2418   2412     1   112.4800480 524.673600
   1500   1501   1513     1   114.2100488 537.225600
   1500   1504   1516     1   114.2100488 537.225600
   1500   1507   1510     1   114.2100488 537.225600
   1501   1500   1504     1   109.6600471 523.836800
   1501   1500   1507     1   109.6600471 523.836800
   1501   1513   1525     1   111.5100476 526.347200
   1504   1500   1507     1   109.6600471 523.836800
   1504   1516   1522     1   111.5100476 526.347200
   1507   1510   1519     1   111.5100476 526.347200
   1510   1519   1528     1   107.9700462 569.024000
   1513   1525   2446     1   107.9700462 569.024000
   1516   1522   2432     1   107.9700462 569.024000
   1522   2432   2426     1   112.4800480 524.673600
   1525   2446   2440     1   112.4800480 524.673600
   1530   1531   1543     1   114.2100488 537.225600
   1530   1534   1546     1   114.2100488 537.225600
   1530   1537   1540     1   114.2100488 537.225600
   1531   1530   1534     1   109.6600471 523.836800
   1531   1530   1537     1   109.6600471 523.836800
   1531   1543   1555     1   111.5100476 526.347200
   1534   1530   1537     1   109.6600471 523.836800
   1534   1546   1552     1   111.5100476 526.347200
   1537   1540   1549     1   111.5100476 526.347200
   1540   1549   1558     1   107.9700462 569.024000
   1543   1555   2474     1   107.9700462 569.024000
   1546   1552   2460     1   107.9700462 569.024000
   1552   2460   2454     1   112.4800480 524.673600
   1555   2474   2468     1   112.4800480 524.673600
   1560   1561   1573     1   114.2100488 537.225600
   1560   1564   1576     1   114.2100488 537.225600
   1560   1567   1570     1   114.2100488 537.225600
   1561   1560   1564     1   109.6600471 523.836800
   1561   1560   1567     1   109.6600471 523.836800
   1561   1573   1585     1   111.5100476 526.347200
   1564   1560   1567     1   109.6600471 523.836800
   1564   1576   1582     1   111.5100476 526.347200
   1567   1570   1579     1   111.5100476 526.347200
   1570   1579   1588     1   107.9700462 569.024000
   1573   1585   2502     1   107.9700462 569.024000
   1576   1582   2488     1   107.9700462 569.024000
   1582   2488   2482     1   112.4800480 524.673600
   1585   2502   2496     1   112.4800480 524.673600
   1590   1591   1603     1   114.2100488 537.225600
   1590   1594   1606     1   114.2100488 537.225600
   1590   1597   1600     1   114.2100488 537.225600
   1591   1590   1594     1   109.6600471 523.836800
   1591   1590   1597     1   109.6600471 523.836800
   1591   1603   1615     1   111.5100476 526.347200
   1594   1590   1597     1   109.6600471 523.836800
   1594   1606   1612     1   111.5100476 526.347200
   1597   1600   1609     1   111.5100476 526.347200
   1600   1609   1618     1   107.9700462 569.024000
   1603   1615   2530     1   107.9700462 569.024000
   1606   1612   2516     1   107.9700462 569.024000
   1612   2516   2510     1   112.4800480 524.673600
   1615   2530   2524     1   112.4800480 524.673600
   1620   1621   1633     1   114.2100488 537.225600
   1620   1624   1636     1   114.2100488 537.225600
   1620   1627   1630     1   114.2100488 537.225600
   1621   1620   1624     1   109.6600471 523.836800
   1621   1620   1627     1   109.6600471 523.836800
   1621   1633   1645     1   111.5100476 526.347200
   1624   1620   1627     1   109.6600471 523.836800
   1624   1636   1642     1   111.5100476 526.347200
   1627   1630   1639     1   111.5100476 526.347200
   1630   1639   1648     1   107.9700462 569.024000
   1633   1645   2558     1   107.9700462 569.024000
   1636   1642   2544     1   107.9700462 569.024000
   1642   2544   2538     1   112.4800480 524.673600
   1645   2558   2552     1   112.4800480 524.673600
   1650   1651   1663     1   114.2100488 537.225600
   1650   1654   1666     1   114.2100488 537.225600
   1650   1657   1660     1   114.2100488 537.225600
   1651   1650   1654     1   109.6600471 523.836800
   1651   1650   1657     1   109.6600471 523.836800
   1651   1663   1675     1   111.5100476 526.347200
   1654   1650   1657     1   109.6600471 523.836800
   1654   1666   1672     1   111.5100476 526.347200
   1657   1660   1669     1   111.5100476 526.347200
   1660   1669   1678     1   107.9700462 569.024000
   1663   1675   2586     1   107.9700462 569.024000
   1666   1672   2572     1   107.9700462 569.024000
   1672   2572   2566     1   112.4800480 524.673600
   1675   2586   2580     1   112.4800480 524.673600
   1680   1681   1693     1   114.2100488 537.225600
   1680   1684   1696     1   114.2100488 537.225600
   1680   1687   1690     1   114.2100488 537.225600
   1681   1680   1684     1   109.6600471 523.836800
   1681   1680   1687     1   109.6600471 523.836800
   1681   1693   1705     1   111.5100476 526.347200
   1684   1680   1687     1   109.6600471 523.836800
   1684   1696   1702     1   111.5100476 526.347200
   1687   1690   1699     1   111.5100476 526.347200
   1690   1699   1708     1   107.9700462 569.024000
   1693   1705   2614     1   107.9700462 569.024000
   1696   1702   2600     1   107.9700462 569.024000
   1702   2600   2594     1   112.4800480 524.673600
   1705   2614   2608     1   112.4800480 524.673600
   1710   1711   1723     1   114.2100488 537.225600
   1710   1714   1726     1   114.2100488 537.225600
   1710   1717   1720     1   114.2100488 537.225600
   1711   1710   1714     1   109.6600471 523.836800
   1711   1710   1717     1   109.6600471 523.836800
   1711   1723   1735     1   111.5100476 526.347200
   1714   1710   1717     1   109.6600471 523.836800
   1714   1726   1732     1   111.5100476 526.347200
   1717   1720   1729     1   111.5100476 526.347200
   1720   1729   1738     1   107.9700462 569.024000
   1723   1735   2642     1   107.9700462 569.024000
   1726   1732   2628     1   107.9700462 569.024000
   1732   2628   2622     1   112.4800480 524.673600
   1735   2642   2636     1   112.4800480 524.673600
   1740   1741   1753     1   114.2100488 537.225600
   1740   1744   1756     1   114.2100488 537.225600
   1740   1747   1750     1   114.2100488 537.225600
   1741   1740   1744     1   109.6600471 523.836800
   1741   1740   1747     1   109.6600471 523.836800
   1741   1753   1765     1   111.5100476 526.347200
   1744   1740   1747     1   109.6600471 523.836800
   1744   1756   1762     1   111.5100476 526.347200
   1747   1750   1759     1   111.5100476 526.347200
   1750   1759   1768     1   107.9700462 569.024000
   1753   1765   2670     1   107.9700462 569.024000
   1756   1762   2656     1   107.9700462 569.024000
   1762   2656   2650     1   112.4800480 524.673600
   1765   2670   2664     1   112.4800480 524.673600
   1770   1771   1783     1   114.2100488 537.225600
   1770   1774   1786     1   114.2100488 537.225600
   1770   1777   1780     1   114.2100488 537.225600
   1771   1770   1774     1   109.6600471 523.836800
   1771   1770   1777     1   109.6600471 523.836800
   1771   1783   1795     1   111.5100476 526.347200
   1774   1770   1777     1   109.6600471 523.836800
   1774   1786   1792     1   111.5100476 526.347200
   1777   1780   1789     1   111.5100476 526.347200
   1780   1789   1798     1   107.9700462 569.024000
   1783   1795   2698     1   107.9700462 569.024000
   1786   1792   2684     1   107.9700462 569.024000
   1792   2684   2678     1   112.4800480 524.673600
   1795   2698   2692     1   112.4800480 524.673600
   1800   1801   1813     1   114.2100488 537.225600
   1800   1804   1816     1   114.2100488 537.225600
   1800   1807   1810     1   114.2100488 537.225600
   1801   1800   1804     1   109.6600471 523.836800
   1801   1800   1807     1   109.6600471 523.836800
   1801   1813   1825     1   111.5100476 526.347200
   1804   1800   1807     1   109.6600471 523.836800
   1804   1816   1822     1   111.5100476 526.347200
   1807   1810   1819     1   111.5100476 526.347200
   1810   1819   1828     1   107.9700462 569.024000
   1813   1825   2726     1   107.9700462 569.024000
   1816   1822   2712     1   107.9700462 569.024000
   1822   2712   2706     1   112.4800480 524.673600
   1825   2726   2720     1   112.4800480 524.673600
   1830   1831   1843     1   114.2100488 537.225600
   1830   1834   1846     1   114.2100488 537.225600
   1830   1837   1840     1   114.2100488 537.225600
   1831   1830   1834     1   109.6600471 523.836800
   1831   1830   1837     1   109.6600471 523.836800
   1831   1843   1855     1   111.5100476 526.347200
   1834   1830   1837     1   109.6600471 523.836800
   1834   1846   1852     1   111.5100476 526.347200
   1837   1840   1849     1   111.5100476 526.347200
   1840   1849   1858     1   107.9700462 569.024000
   1843   1855   2754     1   107.9700462 569.024000
   1846   1852   2740     1   107.9700462 569.024000
   1852   2740   2734     1   112.4800480 524.673600
   1855   2754   2748     1   112.4800480 524.673600
   1860   1863   1866     1   111.5100476 526.347200
   1863   1860   1869     1   114.2100488 537.225600
   1863   1866   1872     1   107.9700462 569.024000
   1874   1877   1880     1   111.5100476 526.347200
   1877   1880   1886     1   107.9700462 569.024000
   1877   1874   1883     1   114.2100488 537.225600
   1888   1891   1894     1   111.5100476 526.347200
   1891   1888   1897     1   114.2100488 537.225600
   1891   1894   1900     1   107.9700462 569.024000
   1902   1905   1908     1   111.5100476 526.347200
   1905   1908   1914     1   107.9700462 569.024000
   1905   1902   1911     1   114.2100488 537.225600
   1916   1919   1922     1   111.5100476 526.347200
   1919   1916   1925     1   114.2100488 537.225600
   1919   1922   1928     1   107.9700462 569.024000
   1930   1933   1936     1   111.5100476 526.347200
   1933   1936   1942     1   107.9700462 569.024000
   1933   1930   1939     1   114.2100488 537.225600
   1944   1947   1950     1   111.5100476 526.347200
   1947   1944   1953     1   114.2100488 537.225600
   1947   1950   1956     1   107.9700462 569.024000
   1958   1961   1964     1   111.5100476 526.347200
   1961   1964   1970     1   107.9700462 569.024000
   1961   1958   1967     1   114.2100488 537.225600
   1972   1975   1978     1   111.5100476 526.347200
   1975   1972   1981     1   114.2100488 537.225600
   1975   1978   1984     1   107.9700462 569.024000
   1986   1989   1992     1   111.5100476 526.347200
   1989   1992   1998     1   107.9700462 569.024000
   1989   1986   1995     1   114.2100488 537.225600
   2000   2003   2006     1   111.5100476 526.347200
   2003   2000   2009     1   114.2100488 537.225600
   2003   2006   2012     1   107.9700462 569.024000
   2014   2017   2020     1   111.5100476 526.347200
   2017   2020   2026     1   107.9700462 569.024000
   2017   2014   2023     1   114.2100488 537.225600
   2028   2031   2034     1   111.5100476 526.347200
   2031   2028   2037     1   114.2100488 537.225600
   2031   2034   2040     1   107.9700462 569.024000
   2042   2045   2048     1   111.5100476 526.347200
   2045   2048   2054     1   107.9700462 569.024000
   2045   2042   2051     1   114.2100488 537.225600
   2056   2059   2062     1   111.5100476 526.347200
   2059   2056   2065     1   114.2100488 537.225600
   2059   2062   2068     1   107.9700462 569.024000
   2070   2073   2076     1   111.5100476 526.347200
   2073   2076   2082     1   107.9700462 569.024000
   2073   2070   2079     1   114.2100488 537.225600
   2084   2087   2090     1   111.5100476 526.347200
   2087   2084   2093     1   114.2100488 537.225600
   2087   2090   2096     1   107.9700462 569.024000
   2098   2101   2104     1   111.5100476 526.347200
   2101   2104   2110     1   107.9700462 569.024000
   2101   2098   2107     1   114.2100488 537.225600
   2112   2115   2118     1   111.5100476 526.347200
   2115   2112   2121     1   114.2100488 537.225600
   2115   2118   2124     1   107.9700462 569.024000
   2126   2129   2132     1   111.5100476 526.347200
   2129   2132   2138     1   107.9700462 569.024000
   2129   2126   2135     1   114.2100488 537.225600
   2140   2143   2146     1   111.5100476 526.347200
   2143   2140   2149     1   114.2100488 537.225600
   2143   2146   2152     1   107.9700462 569.024000
   2154   2157   2160     1   111.5100476 526.347200
   2157   2160   2166     1   107.9700462 569.024000
   2157   2154   2163     1   114.2100488 537.225600
   2168   2171   2174     1   111.5100476 526.347200
   2171   2168   2177     1   114.2100488 537.225600
   2171   2174   2180     1   107.9700462 569.024000
   2182   2185   2188     1   111.5100476 526.347200
   2185   2188   2194     1   107.9700462 569.024000
   2185   2182   2191     1   114.2100488 537.225600
   2196   2199   2202     1   111.5100476 526.347200
   2199   2196   2205     1   114.2100488 537.225600
   2199   2202   2208     1   107.9700462 569.024000
   2210   2213   2216     1   111.5100476 526.347200
   2213   2216   2222     1   107.9700462 569.024000
   2213   2210   2219     1   114.2100488 537.225600
   2224   2227   2230     1   111.5100476 526.347200
   2227   2224   2233     1   114.2100488 537.225600
   2227   2230   2236     1   107.9700462 569.024000
   2238   2241   2244     1   111.5100476 526.347200
   2241   2244   2250     1   107.9700462 569.024000
   2241   2238   2247     1   114.2100488 537.225600
   2252   2255   2258     1   111.5100476 526.347200
   2255   2252   2261     1   114.2100488 537.225600
   2255   2258   2264     1   107.9700462 569.024000
   2266   2269   2272     1   111.5100476 526.347200
   2269   2272   2278     1   107.9700462 569.024000
   2269   2266   2275     1   114.2100488 537.225600
   2280   2283   2286     1   111.5100476 526.347200
   2283   2280   2289     1   114.2100488 537.225600
   2283   2286   2292     1   107.9700462 569.024000
   2294   2297   2300     1   111.5100476 526.347200
   2297   2300   2306     1   107.9700462 569.024000
   2297   2294   2303     1   114.2100488 537.225600
   2308   2311   2314     1   111.5100476 526.347200
   2311   2308   2317     1   114.2100488 537.225600
   2311   2314   2320     1   107.9700462 569.024000
   2322   2325   2328     1   111.5100476 526.347200
   2325   2328   2334     1   107.9700462 569.024000
   2325   2322   2331     1   114.2100488 537.225600
   2336   2339   2342     1   111.5100476 526.347200
   2339   2336   2345     1   114.2100488 537.225600
   2339   2342   2348     1   107.9700462 569.024000
   2350   2353   2356     1   111.5100476 526.347200
   2353   2356   2362     1   107.9700462 569.024000
   2353   2350   2359     1   114.2100488 537.225600
   2364   2367   2370     1   111.5100476 526.347200
   2367   2364   2373     1   114.2100488 537.225600
   2367   2370   2376     1   107.9700462 569.024000
   2378   2381   2384     1   111.5100476 526.347200
   2381   2384   2390     1   107.9700462 569.024000
   2381   2378   2387     1   114.2100488 537.225600
   2392   2395   2398     1   111.5100476 526.347200
   2395   2392   2401     1   114.2100488 537.225600
   2395   2398   2404     1   107.9700462 569.024000
   2406   2409   2412     1   111.5100476 526.347200
   2409   2412   2418     1   107.9700462 569.024000
   2409   2406   2415     1   114.2100488 537.225600
   2420   2423   2426     1   111.5100476 526.347200
   2423   2420   2429     1   114.2100488 537.225600
   2423   2426   2432     1   107.9700462 569.024000
   2434   2437   2440     1   111.5100476 526.347200
   2437   2440   2446     1   107.9700462 569.024000
   2437   2434   2443     1   114.2100488 537.225600
   2448   2451   2454     1   111.5100476 526.347200
   2451   2448   2457     1   114.2100488 537.225600
   2451   2454   2460     1   107.9700462 569.024000
   2462   2465   2468     1   111.5100476 526.347200
   2465   2468   2474     1   107.9700462 569.024000
   2465   2462   2471     1   114.2100488 537.225600
   2476   2479   2482     1   111.5100476 526.347200
   2479   2476   2485     1   114.2100488 537.225600
   2479   2482   2488     1   107.9700462 569.024000
   2490   2493   2496     1   111.5100476 526.347200
   2493   2496   2502     1   107.9700462 569.024000
   2493   2490   2499     1   114.2100488 537.225600
   2504   2507   2510     1   111.5100476 526.347200
   2507   2504   2513     1   114.2100488 537.225600
   2507   2510   2516     1   107.9700462 569.024000
   2518   2521   2524     1   111.5100476 526.347200
   2521   2524   2530     1   107.9700462 569.024000
   2521   2518   2527     1   114.2100488 537.225600
   2532   2535   2538     1   111.5100476 526.347200
   2535   2532   2541     1   114.2100488 537.225600
   2535   2538   2544     1   107.9700462 569.024000
   2546   2549   2552     1   111.5100476 526.347200
   2549   2552   2558     1   107.9700462 569.024000
   2549   2546   2555     1   114.2100488 537.225600
   2560   2563   2566     1   111.5100476 526.347200
   2563   2560   2569     1   114.2100488 537.225600
   2563   2566   2572     1   107.9700462 569.024000
   2574   2577   2580     1   111.5100476 526.347200
   2577   2580   2586     1   107.9700462 569.024000
   2577   2574   2583     1   114.2100488 537.225600
   2588   2591   2594     1   111.5100476 526.347200
   2591   2588   2597     1   114.2100488 537.225600
   2591   2594   2600     1   107.9700462 569.024000
   2602   2605   2608     1   111.5100476 526.347200
   2605   2608   2614     1   107.9700462 569.024000
   2605   2602   2611     1   114.2100488 537.225600
   2616   2619   2622     1   111.5100476 526.347200
   2619   2616   2625     1   114.2100488 537.225600
   2619   2622   2628     1   107.9700462 569.024000
   2630   2633   2636     1   111.5100476 526.347200
   2633   2636   2642     1   107.9700462 569.024000
   2633   2630   2639     1   114.2100488 537.225600
   2644   2647   2650     1   111.5100476 526.347200
   2647   2644   2653     1   114.2100488 537.225600
   2647   2650   2656     1   107.9700462 569.024000
   2658   2661   2664     1   111.5100476 526.347200
   2661   2664   2670     1   107.9700462 569.024000
   2661   2658   2667     1   114.2100488 537.225600
   2672   2675   2678     1   111.5100476 526.347200
   2675   2672   2681     1   114.2100488 537.225600
   2675   2678   2684     1   107.9700462 569.024000
   2686   2689   2692     1   111.5100476 526.347200
   2689   2692   2698     1   107.9700462 569.024000
   2689   2686   2695     1   114.2100488 537.225600
   2700   2703   2706     1   111.5100476 526.347200
   2703   2700   2709     1   114.2100488 537.225600
   2703   2706   2712     1   107.9700462 569.024000
   2714   2717   2720     1   111.5100476 526.347200
   2717   2720   2726     1   107.9700462 569.024000
   2717   2714   2723     1   114.2100488 537.225600
   2728   2731   2734     1   111.5100476 526.347200
   2731   2728   2737     1   114.2100488 537.225600
   2731   2734   2740     1   107.9700462 569.024000
   2742   2745   2748     1   111.5100476 526.347200
   2745   2748   2754     1   107.9700462 569.024000
   2745   2742   2751     1   114.2100488 537.225600
      1      2      3     1   109.7800468 425.094400
      1      2      4     1   109.7800468 425.094400
      1      5      6     1   109.7800468 425.094400
      1      5      7     1   109.7800468 425.094400
      2      8      9     1   109.8000471 387.438400
      2      8     10     1   109.8000471 387.438400
      3      2      8     1   109.5600471 388.275200
      3      2      4     1   108.4600466 328.025600
      4      2      8     1   109.5600471 388.275200
      5     11     12     1   109.8000471 387.438400
      5     11     13     1   109.8000471 387.438400
      6      5     11     1   109.5600471 388.275200
      6      5      7     1   108.4600466 328.025600
      7      5     11     1   109.5600471 388.275200
      8     14     15     1   110.5600475 386.601600
      8     14     16     1   110.5600475 386.601600
      9      8     14     1   109.8000471 387.438400
      9      8     10     1   107.5800459 329.699200
     10      8     14     1   109.8000471 387.438400
     11     17     18     1   110.5600475 386.601600
     11     17     19     1   110.5600475 386.601600
     12     11     17     1   109.8000471 387.438400
     12     11     13     1   107.5800459 329.699200
     13     11     17     1   109.8000471 387.438400
     14     20     58     1   110.1100470 384.091200
     15     14     20     1   108.0100461 406.684800
     15     14     16     1   109.7500473 328.025600
     16     14     20     1   108.0100461 406.684800
     17     21     59     1   110.1100470 384.091200
     18     17     21     1   108.0100461 406.684800
     18     17     19     1   109.7500473 328.025600
     19     17     21     1   108.0100461 406.684800
     20     28     29     1   108.0100461 406.684800
     20     28     30     1   108.0100461 406.684800
     20     31     32     1   108.0100461 406.684800
     20     31     33     1   108.0100461 406.684800
     21     22     23     1   108.0100461 406.684800
     21     22     24     1   108.0100461 406.684800
     21     25     26     1   108.0100461 406.684800
     21     25     27     1   108.0100461 406.684800
     22     21     59     1   110.1100470 384.091200
     22     34     35     1   109.8000471 387.438400
     22     34     36     1   109.8000471 387.438400
     23     22     34     1   110.5600475 386.601600
     23     22     24     1   109.7500473 328.025600
     24     22     34     1   110.5600475 386.601600
     25     21     59     1   110.1100470 384.091200
     25     37     38     1   109.8000471 387.438400
     25     37     39     1   109.8000471 387.438400
     26     25     37     1   110.5600475 386.601600
     26     25     27     1   109.7500473 328.025600
     27     25     37     1   110.5600475 386.601600
     28     20     58     1   110.1100470 384.091200
     28     40     41     1   109.8000471 387.438400
     28     40     42     1   109.8000471 387.438400
     29     28     40     1   110.5600475 386.601600
     29     28     30     1   109.7500473 328.025600
     30     28     40     1   110.5600475 386.601600
     31     20     58     1   110.1100470 384.091200
     31     43     44     1   109.8000471 387.438400
     31     43     45     1   109.8000471 387.438400
     32     31     43     1   110.5600475 386.601600
     32     31     33     1   109.7500473 328.025600
     33     31     43     1   110.5600475 386.601600
     34     55     56     1   109.8000471 387.438400
     34     55     57     1   109.8000471 387.438400
     35     34     55     1   109.8000471 387.438400
     35     34     36     1   107.5800459 329.699200
     36     34     55     1   109.8000471 387.438400
     37     52     53     1   109.8000471 387.438400
     37     52     54     1   109.8000471 387.438400
     38     37     52     1   109.8000471 387.438400
     38     37     39     1   107.5800459 329.699200
     39     37     52     1   109.8000471 387.438400
     40     49     50     1   109.8000471 387.438400
     40     49     51     1   109.8000471 387.438400
     41     40     49     1   109.8000471 387.438400
     41     40     42     1   107.5800459 329.699200
     42     40     49     1   109.8000471 387.438400
     43     46     47     1   109.8000471 387.438400
     43     46     48     1   109.8000471 387.438400
     44     43     46     1   109.8000471 387.438400
     44     43     45     1   107.5800459 329.699200
     45     43     46     1   109.8000471 387.438400
     47     46     88     1   108.7000466 426.768000
     47     46     48     1   107.5800459 329.699200
     48     46     88     1   108.7000466 426.768000
     50     49    118     1   108.7000466 426.768000
     50     49     51     1   107.5800459 329.699200
     51     49    118     1   108.7000466 426.768000
     53     52    148     1   108.7000466 426.768000
     53     52     54     1   107.5800459 329.699200
     54     52    148     1   108.7000466 426.768000
     56     55    178     1   108.7000466 426.768000
     56     55     57     1   107.5800459 329.699200
     57     55    178     1   108.7000466 426.768000
     60     61     62     1   108.0100461 406.684800
     60     61     63     1   108.0100461 406.684800
     60     64     65     1   108.0100461 406.684800
     60     64     66     1   108.0100461 406.684800
     60     67     68     1   108.0100461 406.684800
     60     67     69     1   108.0100461 406.684800
     61     60     89     1   110.1100470 384.091200
     61     73     74     1   109.8000471 387.438400
     61     73     75     1   109.8000471 387.438400
     62     61     73     1   110.5600475 386.601600
     62     61     63     1   109.7500473 328.025600
     63     61     73     1   110.5600475 386.601600
     64     60     89     1   110.1100470 384.091200
     64     76     77     1   109.8000471 387.438400
     64     76     78     1   109.8000471 387.438400
     65     64     76     1   110.5600475 386.601600
     65     64     66     1   109.7500473 328.025600
     66     64     76     1   110.5600475 386.601600
     67     60     89     1   110.1100470 384.091200
     67     70     71     1   109.8000471 387.438400
     67     70     72     1   109.8000471 387.438400
     68     67     70     1   110.5600475 386.601600
     68     67     69     1   109.7500473 328.025600
     69     67     70     1   110.5600475 386.601600
     70     79     80     1   109.5600471 388.275200
     70     79     81     1   109.5600471 388.275200
     71     70     79     1   109.8000471 387.438400
     71     70     72     1   107.5800459 329.699200
     72     70     79     1   109.8000471 387.438400
     73     85     86     1   109.5600471 388.275200
     73     85     87     1   109.5600471 388.275200
     74     73     85     1   109.8000471 387.438400
     74     73     75     1   107.5800459 329.699200
     75     73     85     1   109.8000471 387.438400
     76     82     83     1   109.5600471 388.275200
     76     82     84     1   109.5600471 388.275200
     77     76     82     1   109.8000471 387.438400
     77     76     78     1   107.5800459 329.699200
     78     76     82     1   109.8000471 387.438400
     80     79     88     1   109.7800468 425.094400
     80     79     81     1   108.4600466 328.025600
     81     79     88     1   109.7800468 425.094400
     83     82    208     1   109.7800468 425.094400
     83     82     84     1   108.4600466 328.025600
     84     82    208     1   109.7800468 425.094400
     86     85    238     1   109.7800468 425.094400
     86     85     87     1   108.4600466 328.025600
     87     85    238     1   109.7800468 425.094400
     90     91     92     1   108.0100461 406.684800
     90     91     93     1   108.0100461 406.684800
     90     94     95     1   108.0100461 406.684800
     90     94     96     1   108.0100461 406.684800
     90     97     98     1   108.0100461 406.684800
     90     97     99     1   108.0100461 406.684800
     91     90    119     1   110.1100470 384.091200
     91    103    104     1   109.8000471 387.438400
     91    103    105     1   109.8000471 387.438400
     92     91    103     1   110.5600475 386.601600
     92     91     93     1   109.7500473 328.025600
     93     91    103     1   110.5600475 386.601600
     94     90    119     1   110.1100470 384.091200
     94    106    107     1   109.8000471 387.438400
     94    106    108     1   109.8000471 387.438400
     95     94    106     1   110.5600475 386.601600
     95     94     96     1   109.7500473 328.025600
     96     94    106     1   110.5600475 386.601600
     97     90    119     1   110.1100470 384.091200
     97    100    101     1   109.8000471 387.438400
     97    100    102     1   109.8000471 387.438400
     98     97    100     1   110.5600475 386.601600
     98     97     99     1   109.7500473 328.025600
     99     97    100     1   110.5600475 386.601600
    100    109    110     1   109.5600471 388.275200
    100    109    111     1   109.5600471 388.275200
    101    100    109     1   109.8000471 387.438400
    101    100    102     1   107.5800459 329.699200
    102    100    109     1   109.8000471 387.438400
    103    115    116     1   109.5600471 388.275200
    103    115    117     1   109.5600471 388.275200
    104    103    115     1   109.8000471 387.438400
    104    103    105     1   107.5800459 329.699200
    105    103    115     1   109.8000471 387.438400
    106    112    113     1   109.5600471 388.275200
    106    112    114     1   109.5600471 388.275200
    107    106    112     1   109.8000471 387.438400
    107    106    108     1   107.5800459 329.699200
    108    106    112     1   109.8000471 387.438400
    110    109    118     1   109.7800468 425.094400
    110    109    111     1   108.4600466 328.025600
    111    109    118     1   109.7800468 425.094400
    113    112    268     1   109.7800468 425.094400
    113    112    114     1   108.4600466 328.025600
    114    112    268     1   109.7800468 425.094400
    116    115    298     1   109.7800468 425.094400
    116    115    117     1   108.4600466 328.025600
    117    115    298     1   109.7800468 425.094400
    120    121    122     1   108.0100461 406.684800
    120    121    123     1   108.0100461 406.684800
    120    124    125     1   108.0100461 406.684800
    120    124    126     1   108.0100461 406.684800
    120    127    128     1   108.0100461 406.684800
    120    127    129     1   108.0100461 406.684800
    121    120    149     1   110.1100470 384.091200
    121    133    134     1   109.8000471 387.438400
    121    133    135     1   109.8000471 387.438400
    122    121    133     1   110.5600475 386.601600
    122    121    123     1   109.7500473 328.025600
    123    121    133     1   110.5600475 386.601600
    124    120    149     1   110.1100470 384.091200
    124    136    137     1   109.8000471 387.438400
    124    136    138     1   109.8000471 387.438400
    125    124    136     1   110.5600475 386.601600
    125    124    126     1   109.7500473 328.025600
    126    124    136     1   110.5600475 386.601600
    127    120    149     1   110.1100470 384.091200
    127    130    131     1   109.8000471 387.438400
    127    130    132     1   109.8000471 387.438400
    128    127    130     1   110.5600475 386.601600
    128    127    129     1   109.7500473 328.025600
    129    127    130     1   110.5600475 386.601600
    130    139    140     1   109.5600471 388.275200
    130    139    141     1   109.5600471 388.275200
    131    130    139     1   109.8000471 387.438400
    131    130    132     1   107.5800459 329.699200
    132    130    139     1   109.8000471 387.438400
    133    145    146     1   109.5600471 388.275200
    133    145    147     1   109.5600471 388.275200
    134    133    145     1   109.8000471 387.438400
    134    133    135     1   107.5800459 329.699200
    135    133    145     1   109.8000471 387.438400
    136    142    143     1   109.5600471 388.275200
    136    142    144     1   109.5600471 388.275200
    137    136    142     1   109.8000471 387.438400
    137    136    138     1   107.5800459 329.699200
    138    136    142     1   109.8000471 387.438400
    140    139    148     1   109.7800468 425.094400
    140    139    141     1   108.4600466 328.025600
    141    139    148     1   109.7800468 425.094400
    143    142    328     1   109.7800468 425.094400
    143    142    144     1   108.4600466 328.025600
    144    142    328     1   109.7800468 425.094400
    146    145    358     1   109.7800468 425.094400
    146    145    147     1   108.4600466 328.025600
    147    145    358     1   109.7800468 425.094400
    150    151    152     1   108.0100461 406.684800
    150    151    153     1   108.0100461 406.684800
    150    154    155     1   108.0100461 406.684800
    150    154    156     1   108.0100461 406.684800
    150    157    158     1   108.0100461 406.684800
    150    157    159     1   108.0100461 406.684800
    151    150    179     1   110.1100470 384.091200
    151    163    164     1   109.8000471 387.438400
    151    163    165     1   109.8000471 387.438400
    152    151    163     1   110.5600475 386.601600
    152    151    153     1   109.7500473 328.025600
    153    151    163     1   110.5600475 386.601600
    154    150    179     1   110.1100470 384.091200
    154    166    167     1   109.8000471 387.438400
    154    166    168     1   109.8000471 387.438400
    155    154    166     1   110.5600475 386.601600
    155    154    156     1   109.7500473 328.025600
    156    154    166     1   110.5600475 386.601600
    157    150    179     1   110.1100470 384.091200
    157    160    161     1   109.8000471 387.438400
    157    160    162     1   109.8000471 387.438400
    158    157    160     1   110.5600475 386.601600
    158    157    159     1   109.7500473 328.025600
    159    157    160     1   110.5600475 386.601600
    160    169    170     1   109.5600471 388.275200
    160    169    171     1   109.5600471 388.275200
    161    160    169     1   109.8000471 387.438400
    161    160    162     1   107.5800459 329.699200
    162    160    169     1   109.8000471 387.438400
    163    175    176     1   109.5600471 388.275200
    163    175    177     1   109.5600471 388.275200
    164    163    175     1   109.8000471 387.438400
    164    163    165     1   107.5800459 329.699200
    165    163    175     1   109.8000471 387.438400
    166    172    173     1   109.5600471 388.275200
    166    172    174     1   109.5600471 388.275200
    167    166    172     1   109.8000471 387.438400
    167    166    168     1   107.5800459 329.699200
    168    166    172     1   109.8000471 387.438400
    170    169    178     1   109.7800468 425.094400
    170    169    171     1   108.4600466 328.025600
    171    169    178     1   109.7800468 425.094400
    173    172    388     1   109.7800468 425.094400
    173    172    174     1   108.4600466 328.025600
    174    172    388     1   109.7800468 425.094400
    176    175    418     1   109.7800468 425.094400
    176    175    177     1   108.4600466 328.025600
    177    175    418     1   109.7800468 425.094400
    180    181    182     1   108.0100461 406.684800
    180    181    183     1   108.0100461 406.684800
    180    184    185     1   108.0100461 406.684800
    180    184    186     1   108.0100461 406.684800
    180    187    188     1   108.0100461 406.684800
    180    187    189     1   108.0100461 406.684800
    181    180    209     1   110.1100470 384.091200
    181    193    194     1   109.8000471 387.438400
    181    193    195     1   109.8000471 387.438400
    182    181    193     1   110.5600475 386.601600
    182    181    183     1   109.7500473 328.025600
    183    181    193     1   110.5600475 386.601600
    184    180    209     1   110.1100470 384.091200
    184    196    197     1   109.8000471 387.438400
    184    196    198     1   109.8000471 387.438400
    185    184    196     1   110.5600475 386.601600
    185    184    186     1   109.7500473 328.025600
    186    184    196     1   110.5600475 386.601600
    187    180    209     1   110.1100470 384.091200
    187    190    191     1   109.8000471 387.438400
    187    190    192     1   109.8000471 387.438400
    188    187    190     1   110.5600475 386.601600
    188    187    189     1   109.7500473 328.025600
    189    187    190     1   110.5600475 386.601600
    190    199    200     1   109.5600471 388.275200
    190    199    201     1   109.5600471 388.275200
    191    190    199     1   109.8000471 387.438400
    191    190    192     1   107.5800459 329.699200
    192    190    199     1   109.8000471 387.438400
    193    205    206     1   109.5600471 388.275200
    193    205    207     1   109.5600471 388.275200
    194    193    205     1   109.8000471 387.438400
    194    193    195     1   107.5800459 329.699200
    195    193    205     1   109.8000471 387.438400
    196    202    203     1   109.5600471 388.275200
    196    202    204     1   109.5600471 388.275200
    197    196    202     1   109.8000471 387.438400
    197    196    198     1   107.5800459 329.699200
    198    196    202     1   109.8000471 387.438400
    200    199    208     1   109.7800468 425.094400
    200    199    201     1   108.4600466 328.025600
    201    199    208     1   109.7800468 425.094400
    203    202    448     1   109.7800468 425.094400
    203    202    204     1   108.4600466 328.025600
    204    202    448     1   109.7800468 425.094400
    206    205    478     1   109.7800468 425.094400
    206    205    207     1   108.4600466 328.025600
    207    205    478     1   109.7800468 425.094400
    210    211    212     1   108.0100461 406.684800
    210    211    213     1   108.0100461 406.684800
    210    214    215     1   108.0100461 406.684800
    210    214    216     1   108.0100461 406.684800
    210    217    218     1   108.0100461 406.684800
    210    217    219     1   108.0100461 406.684800
    211    210    239     1   110.1100470 384.091200
    211    223    224     1   109.8000471 387.438400
    211    223    225     1   109.8000471 387.438400
    212    211    223     1   110.5600475 386.601600
    212    211    213     1   109.7500473 328.025600
    213    211    223     1   110.5600475 386.601600
    214    210    239     1   110.1100470 384.091200
    214    226    227     1   109.8000471 387.438400
    214    226    228     1   109.8000471 387.438400
    215    214    226     1   110.5600475 386.601600
    215    214    216     1   109.7500473 328.025600
    216    214    226     1   110.5600475 386.601600
    217    210    239     1   110.1100470 384.091200
    217    220    221     1   109.8000471 387.438400
    217    220    222     1   109.8000471 387.438400
    218    217    220     1   110.5600475 386.601600
    218    217    219     1   109.7500473 328.025600
    219    217    220     1   110.5600475 386.601600
    220    229    230     1   109.5600471 388.275200
    220    229    231     1   109.5600471 388.275200
    221    220    229     1   109.8000471 387.438400
    221    220    222     1   107.5800459 329.699200
    222    220    229     1   109.8000471 387.438400
    223    235    236     1   109.5600471 388.275200
    223    235    237     1   109.5600471 388.275200
    224    223    235     1   109.8000471 387.438400
    224    223    225     1   107.5800459 329.699200
    225    223    235     1   109.8000471 387.438400
    226    232    233     1   109.5600471 388.275200
    226    232    234     1   109.5600471 388.275200
    227    226    232     1   109.8000471 387.438400
    227    226    228     1   107.5800459 329.699200
    228    226    232     1   109.8000471 387.438400
    230    229    238     1   109.7800468 425.094400
    230    229    231     1   108.4600466 328.025600
    231    229    238     1   109.7800468 425.094400
    233    232    508     1   109.7800468 425.094400
    233    232    234     1   108.4600466 328.025600
    234    232    508     1   109.7800468 425.094400
    236    235    538     1   109.7800468 425.094400
    236    235    237     1   108.4600466 328.025600
    237    235    538     1   109.7800468 425.094400
    240    241    242     1   108.0100461 406.684800
    240    241    243     1   108.0100461 406.684800
    240    244    245     1   108.0100461 406.684800
    240    244    246     1   108.0100461 406.684800
    240    247    248     1   108.0100461 406.684800
    240    247    249     1   108.0100461 406.684800
    241    240    269     1   110.1100470 384.091200
    241    253    254     1   109.8000471 387.438400
    241    253    255     1   109.8000471 387.438400
    242    241    253     1   110.5600475 386.601600
    242    241    243     1   109.7500473 328.025600
    243    241    253     1   110.5600475 386.601600
    244    240    269     1   110.1100470 384.091200
    244    256    257     1   109.8000471 387.438400
    244    256    258     1   109.8000471 387.438400
    245    244    256     1   110.5600475 386.601600
    245    244    246     1   109.7500473 328.025600
    246    244    256     1   110.5600475 386.601600
    247    240    269     1   110.1100470 384.091200
    247    250    251     1   109.8000471 387.438400
    247    250    252     1   109.8000471 387.438400
    248    247    250     1   110.5600475 386.601600
    248    247    249     1   109.7500473 328.025600
    249    247    250     1   110.5600475 386.601600
    250    259    260     1   109.5600471 388.275200
    250    259    261     1   109.5600471 388.275200
    251    250    259     1   109.8000471 387.438400
    251    250    252     1   107.5800459 329.699200
    252    250    259     1   109.8000471 387.438400
    253    265    266     1   109.5600471 388.275200
    253    265    267     1   109.5600471 388.275200
    254    253    265     1   109.8000471 387.438400
    254    253    255     1   107.5800459 329.699200
    255    253    265     1   109.8000471 387.438400
    256    262    263     1   109.5600471 388.275200
    256    262    264     1   109.5600471 388.275200
    257    256    262     1   109.8000471 387.438400
    257    256    258     1   107.5800459 329.699200
    258    256    262     1   109.8000471 387.438400
    260    259    268     1   109.7800468 425.094400
    260    259    261     1   108.4600466 328.025600
    261    259    268     1   109.7800468 425.094400
    263    262    568     1   109.7800468 425.094400
    263    262    264     1   108.4600466 328.025600
    264    262    568     1   109.7800468 425.094400
    266    265    598     1   109.7800468 425.094400
    266    265    267     1   108.4600466 328.025600
    267    265    598     1   109.7800468 425.094400
    270    271    272     1   108.0100461 406.684800
    270    271    273     1   108.0100461 406.684800
    270    274    275     1   108.0100461 406.684800
    270    274    276     1   108.0100461 406.684800
    270    277    278     1   108.0100461 406.684800
    270    277    279     1   108.0100461 406.684800
    271    270    299     1   110.1100470 384.091200
    271    283    284     1   109.8000471 387.438400
    271    283    285     1   109.8000471 387.438400
    272    271    283     1   110.5600475 386.601600
    272    271    273     1   109.7500473 328.025600
    273    271    283     1   110.5600475 386.601600
    274    270    299     1   110.1100470 384.091200
    274    286    287     1   109.8000471 387.438400
    274    286    288     1   109.8000471 387.438400
    275    274    286     1   110.5600475 386.601600
    275    274    276     1   109.7500473 328.025600
    276    274    286     1   110.5600475 386.601600
    277    270    299     1   110.1100470 384.091200
    277    280    281     1   109.8000471 387.438400
    277    280    282     1   109.8000471 387.438400
    278    277    280     1   110.5600475 386.601600
    278    277    279     1   109.7500473 328.025600
    279    277    280     1   110.5600475 386.601600
    280    289    290     1   109.5600471 388.275200
    280    289    291     1   109.5600471 388.275200
    281    280    289     1   109.8000471 387.438400
    281    280    282     1   107.5800459 329.699200
    282    280    289     1   109.8000471 387.438400
    283    295    296     1   109.5600471 388.275200
    283    295    297     1   109.5600471 388.275200
    284    283    295     1   109.8000471 387.438400
    284    283    285     1   107.5800459 329.699200
    285    283    295     1   109.8000471 387.438400
    286    292    293     1   109.5600471 388.275200
    286    292    294     1   109.5600471 388.275200
    287    286    292     1   109.8000471 387.438400
    287    286    288     1   107.5800459 329.699200
    288    286    292     1   109.8000471 387.438400
    290    289    298     1   109.7800468 425.094400
    290    289    291     1   108.4600466 328.025600
    291    289    298     1   109.7800468 425.094400
    293    292    628     1   109.7800468 425.094400
    293    292    294     1   108.4600466 328.025600
    294    292    628     1   109.7800468 425.094400
    296    295    658     1   109.7800468 425.094400
    296    295    297     1   108.4600466 328.025600
    297    295    658     1   109.7800468 425.094400
    300    301    302     1   108.0100461 406.684800
    300    301    303     1   108.0100461 406.684800
    300    304    305     1   108.0100461 406.684800
    300    304    306     1   108.0100461 406.684800
    300    307    308     1   108.0100461 406.684800
    300    307    309     1   108.0100461 406.684800
    301    300    329     1   110.1100470 384.091200
    301    313    314     1   109.8000471 387.438400
    301    313    315     1   109.8000471 387.438400
    302    301    313     1   110.5600475 386.601600
    302    301    303     1   109.7500473 328.025600
    303    301    313     1   110.5600475 386.601600
    304    300    329     1   110.1100470 384.091200
    304    316    317     1   109.8000471 387.438400
    304    316    318     1   109.8000471 387.438400
    305    304    316     1   110.5600475 386.601600
    305    304    306     1   109.7500473 328.025600
    306    304    316     1   110.5600475 386.601600
    307    300    329     1   110.1100470 384.091200
    307    310    311     1   109.8000471 387.438400
    307    310    312     1   109.8000471 387.438400
    308    307    310     1   110.5600475 386.601600
    308    307    309     1   109.7500473 328.025600
    309    307    310     1   110.5600475 386.601600
    310    319    320     1   109.5600471 388.275200
    310    319    321     1   109.5600471 388.275200
    311    310    319     1   109.8000471 387.438400
    311    310    312     1   107.5800459 329.699200
    312    310    319     1   109.8000471 387.438400
    313    325    326     1   109.5600471 388.275200
    313    325    327     1   109.5600471 388.275200
    314    313    325     1   109.8000471 387.438400
    314    313    315     1   107.5800459 329.699200
    315    313    325     1   109.8000471 387.438400
    316    322    323     1   109.5600471 388.275200
    316    322    324     1   109.5600471 388.275200
    317    316    322     1   109.8000471 387.438400
    317    316    318     1   107.5800459 329.699200
    318    316    322     1   109.8000471 387.438400
    320    319    328     1   109.7800468 425.094400
    320    319    321     1   108.4600466 328.025600
    321    319    328     1   109.7800468 425.094400
    323    322    688     1   109.7800468 425.094400
    323    322    324     1   108.4600466 328.025600
    324    322    688     1   109.7800468 425.094400
    326    325    718     1   109.7800468 425.094400
    326    325    327     1   108.4600466 328.025600
    327    325    718     1   109.7800468 425.094400
    330    331    332     1   108.0100461 406.684800
    330    331    333     1   108.0100461 406.684800
    330    334    335     1   108.0100461 406.684800
    330    334    336     1   108.0100461 406.684800
    330    337    338     1   108.0100461 406.684800
    330    337    339     1   108.0100461 406.684800
    331    330    359     1   110.1100470 384.091200
    331    343    344     1   109.8000471 387.438400
    331    343    345     1   109.8000471 387.438400
    332    331    343     1   110.5600475 386.601600
    332    331    333     1   109.7500473 328.025600
    333    331    343     1   110.5600475 386.601600
    334    330    359     1   110.1100470 384.091200
    334    346    347     1   109.8000471 387.438400
    334    346    348     1   109.8000471 387.438400
    335    334    346     1   110.5600475 386.601600
    335    334    336     1   109.7500473 328.025600
    336    334    346     1   110.5600475 386.601600
    337    330    359     1   110.1100470 384.091200
    337    340    341     1   109.8000471 387.438400
    337    340    342     1   109.8000471 387.438400
    338    337    340     1   110.5600475 386.601600
    338    337    339     1   109.7500473 328.025600
    339    337    340     1   110.5600475 386.601600
    340    349    350     1   109.5600471 388.275200
    340    349    351     1   109.5600471 388.275200
    341    340    349     1   109.8000471 387.438400
    341    340    342     1   107.5800459 329.699200
    342    340    349     1   109.8000471 387.438400
    343    355    356     1   109.5600471 388.275200
    343    355    357     1   109.5600471 388.275200
    344    343    355     1   109.8000471 387.438400
    344    343    345     1   107.5800459 329.699200
    345    343    355     1   109.8000471 387.438400
    346    352    353     1   109.5600471 388.275200
    346    352    354     1   109.5600471 388.275200
    347    346    352     1   109.8000471 387.438400
    347    346    348     1   107.5800459 329.699200
    348    346    352     1   109.8000471 387.438400
    350    349    358     1   109.7800468 425.094400
    350    349    351     1   108.4600466 328.025600
    351    349    358     1   109.7800468 425.094400
    353    352    748     1   109.7800468 425.094400
    353    352    354     1   108.4600466 328.025600
    354    352    748     1   109.7800468 425.094400
    356    355    778     1   109.7800468 425.094400
    356    355    357     1   108.4600466 328.025600
    357    355    778     1   109.7800468 425.094400
    360    361    362     1   108.0100461 406.684800
    360    361    363     1   108.0100461 406.684800
    360    364    365     1   108.0100461 406.684800
    360    364    366     1   108.0100461 406.684800
    360    367    368     1   108.0100461 406.684800
    360    367    369     1   108.0100461 406.684800
    361    360    389     1   110.1100470 384.091200
    361    373    374     1   109.8000471 387.438400
    361    373    375     1   109.8000471 387.438400
    362    361    373     1   110.5600475 386.601600
    362    361    363     1   109.7500473 328.025600
    363    361    373     1   110.5600475 386.601600
    364    360    389     1   110.1100470 384.091200
    364    376    377     1   109.8000471 387.438400
    364    376    378     1   109.8000471 387.438400
    365    364    376     1   110.5600475 386.601600
    365    364    366     1   109.7500473 328.025600
    366    364    376     1   110.5600475 386.601600
    367    360    389     1   110.1100470 384.091200
    367    370    371     1   109.8000471 387.438400
    367    370    372     1   109.8000471 387.438400
    368    367    370     1   110.5600475 386.601600
    368    367    369     1   109.7500473 328.025600
    369    367    370     1   110.5600475 386.601600
    370    379    380     1   109.5600471 388.275200
    370    379    381     1   109.5600471 388.275200
    371    370    379     1   109.8000471 387.438400
    371    370    372     1   107.5800459 329.699200
    372    370    379     1   109.8000471 387.438400
    373    385    386     1   109.5600471 388.275200
    373    385    387     1   109.5600471 388.275200
    374    373    385     1   109.8000471 387.438400
    374    373    375     1   107.5800459 329.699200
    375    373    385     1   109.8000471 387.438400
    376    382    383     1   109.5600471 388.275200
    376    382    384     1   109.5600471 388.275200
    377    376    382     1   109.8000471 387.438400
    377    376    378     1   107.5800459 329.699200
    378    376    382     1   109.8000471 387.438400
    380    379    388     1   109.7800468 425.094400
    380    379    381     1   108.4600466 328.025600
    381    379    388     1   109.7800468 425.094400
    383    382    808     1   109.7800468 425.094400
    383    382    384     1   108.4600466 328.025600
    384    382    808     1   109.7800468 425.094400
    386    385    838     1   109.7800468 425.094400
    386    385    387     1   108.4600466 328.025600
    387    385    838     1   109.7800468 425.094400
    390    391    392     1   108.0100461 406.684800
    390    391    393     1   108.0100461 406.684800
    390    394    395     1   108.0100461 406.684800
    390    394    396     1   108.0100461 406.684800
    390    397    398     1   108.0100461 406.684800
    390    397    399     1   108.0100461 406.684800
    391    390    419     1   110.1100470 384.091200
    391    403    404     1   109.8000471 387.438400
    391    403    405     1   109.8000471 387.438400
    392    391    403     1   110.5600475 386.601600
    392    391    393     1   109.7500473 328.025600
    393    391    403     1   110.5600475 386.601600
    394    390    419     1   110.1100470 384.091200
    394    406    407     1   109.8000471 387.438400
    394    406    408     1   109.8000471 387.438400
    395    394    406     1   110.5600475 386.601600
    395    394    396     1   109.7500473 328.025600
    396    394    406     1   110.5600475 386.601600
    397    390    419     1   110.1100470 384.091200
    397    400    401     1   109.8000471 387.438400
    397    400    402     1   109.8000471 387.438400
    398    397    400     1   110.5600475 386.601600
    398    397    399     1   109.7500473 328.025600
    399    397    400     1   110.5600475 386.601600
    400    409    410     1   109.5600471 388.275200
    400    409    411     1   109.5600471 388.275200
    401    400    409     1   109.8000471 387.438400
    401    400    402     1   107.5800459 329.699200
    402    400    409     1   109.8000471 387.438400
    403    415    416     1   109.5600471 388.275200
    403    415    417     1   109.5600471 388.275200
    404    403    415     1   109.8000471 387.438400
    404    403    405     1   107.5800459 329.699200
    405    403    415     1   109.8000471 387.438400
    406    412    413     1   109.5600471 388.275200
    406    412    414     1   109.5600471 388.275200
    407    406    412     1   109.8000471 387.438400
    407    406    408     1   107.5800459 329.699200
    408    406    412     1   109.8000471 387.438400
    410    409    418     1   109.7800468 425.094400
    410    409    411     1   108.4600466 328.025600
    411    409    418     1   109.7800468 425.094400
    413    412    868     1   109.7800468 425.094400
    413    412    414     1   108.4600466 328.025600
    414    412    868     1   109.7800468 425.094400
    416    415    898     1   109.7800468 425.094400
    416    415    417     1   108.4600466 328.025600
    417    415    898     1   109.7800468 425.094400
    420    421    422     1   108.0100461 406.684800
    420    421    423     1   108.0100461 406.684800
    420    424    425     1   108.0100461 406.684800
    420    424    426     1   108.0100461 406.684800
    420    427    428     1   108.0100461 406.684800
    420    427    429     1   108.0100461 406.684800
    421    420    449     1   110.1100470 384.091200
    421    433    434     1   109.8000471 387.438400
    421    433    435     1   109.8000471 387.438400
    422    421    433     1   110.5600475 386.601600
    422    421    423     1   109.7500473 328.025600
    423    421    433     1   110.5600475 386.601600
    424    420    449     1   110.1100470 384.091200
    424    436    437     1   109.8000471 387.438400
    424    436    438     1   109.8000471 387.438400
    425    424    436     1   110.5600475 386.601600
    425    424    426     1   109.7500473 328.025600
    426    424    436     1   110.5600475 386.601600
    427    420    449     1   110.1100470 384.091200
    427    430    431     1   109.8000471 387.438400
    427    430    432     1   109.8000471 387.438400
    428    427    430     1   110.5600475 386.601600
    428    427    429     1   109.7500473 328.025600
    429    427    430     1   110.5600475 386.601600
    430    439    440     1   109.5600471 388.275200
    430    439    441     1   109.5600471 388.275200
    431    430    439     1   109.8000471 387.438400
    431    430    432     1   107.5800459 329.699200
    432    430    439     1   109.8000471 387.438400
    433    445    446     1   109.5600471 388.275200
    433    445    447     1   109.5600471 388.275200
    434    433    445     1   109.8000471 387.438400
    434    433    435     1   107.5800459 329.699200
    435    433    445     1   109.8000471 387.438400
    436    442    443     1   109.5600471 388.275200
    436    442    444     1   109.5600471 388.275200
    437    436    442     1   109.8000471 387.438400
    437    436    438     1   107.5800459 329.699200
    438    436    442     1   109.8000471 387.438400
    440    439    448     1   109.7800468 425.094400
    440    439    441     1   108.4600466 328.025600
    441    439    448     1   109.7800468 425.094400
    443    442    928     1   109.7800468 425.094400
    443    442    444     1   108.4600466 328.025600
    444    442    928     1   109.7800468 425.094400
    446    445    958     1   109.7800468 425.094400
    446    445    447     1   108.4600466 328.025600
    447    445    958     1   109.7800468 425.094400
    450    451    452     1   108.0100461 406.684800
    450    451    453     1   108.0100461 406.684800
    450    454    455     1   108.0100461 406.684800
    450    454    456     1   108.0100461 406.684800
    450    457    458     1   108.0100461 406.684800
    450    457    459     1   108.0100461 406.684800
    451    450    479     1   110.1100470 384.091200
    451    463    464     1   109.8000471 387.438400
    451    463    465     1   109.8000471 387.438400
    452    451    463     1   110.5600475 386.601600
    452    451    453     1   109.7500473 328.025600
    453    451    463     1   110.5600475 386.601600
    454    450    479     1   110.1100470 384.091200
    454    466    467     1   109.8000471 387.438400
    454    466    468     1   109.8000471 387.438400
    455    454    466     1   110.5600475 386.601600
    455    454    456     1   109.7500473 328.025600
    456    454    466     1   110.5600475 386.601600
    457    450    479     1   110.1100470 384.091200
    457    460    461     1   109.8000471 387.438400
    457    460    462     1   109.8000471 387.438400
    458    457    460     1   110.5600475 386.601600
    458    457    459     1   109.7500473 328.025600
    459    457    460     1   110.5600475 386.601600
    460    469    470     1   109.5600471 388.275200
    460    469    471     1   109.5600471 388.275200
    461    460    469     1   109.8000471 387.438400
    461    460    462     1   107.5800459 329.699200
    462    460    469     1   109.8000471 387.438400
    463    475    476     1   109.5600471 388.275200
    463    475    477     1   109.5600471 388.275200
    464    463    475     1   109.8000471 387.438400
    464    463    465     1   107.5800459 329.699200
    465    463    475     1   109.8000471 387.438400
    466    472    473     1   109.5600471 388.275200
    466    472    474     1   109.5600471 388.275200
    467    466    472     1   109.8000471 387.438400
    467    466    468     1   107.5800459 329.699200
    468    466    472     1   109.8000471 387.438400
    470    469    478     1   109.7800468 425.094400
    470    469    471     1   108.4600466 328.025600
    471    469    478     1   109.7800468 425.094400
    473    472    988     1   109.7800468 425.094400
    473    472    474     1   108.4600466 328.025600
    474    472    988     1   109.7800468 425.094400
    476    475   1018     1   109.7800468 425.094400
    476    475    477     1   108.4600466 328.025600
    477    475   1018     1   109.7800468 425.094400
    480    481    482     1   108.0100461 406.684800
    480    481    483     1   108.0100461 406.684800
    480    484    485     1   108.0100461 406.684800
    480    484    486     1   108.0100461 406.684800
    480    487    488     1   108.0100461 406.684800
    480    487    489     1   108.0100461 406.684800
    481    480    509     1   110.1100470 384.091200
    481    493    494     1   109.8000471 387.438400
    481    493    495     1   109.8000471 387.438400
    482    481    493     1   110.5600475 386.601600
    482    481    483     1   109.7500473 328.025600
    483    481    493     1   110.5600475 386.601600
    484    480    509     1   110.1100470 384.091200
    484    496    497     1   109.8000471 387.438400
    484    496    498     1   109.8000471 387.438400
    485    484    496     1   110.5600475 386.601600
    485    484    486     1   109.7500473 328.025600
    486    484    496     1   110.5600475 386.601600
    487    480    509     1   110.1100470 384.091200
    487    490    491     1   109.8000471 387.438400
    487    490    492     1   109.8000471 387.438400
    488    487    490     1   110.5600475 386.601600
    488    487    489     1   109.7500473 328.025600
    489    487    490     1   110.5600475 386.601600
    490    499    500     1   109.5600471 388.275200
    490    499    501     1   109.5600471 388.275200
    491    490    499     1   109.8000471 387.438400
    491    490    492     1   107.5800459 329.699200
    492    490    499     1   109.8000471 387.438400
    493    505    506     1   109.5600471 388.275200
    493    505    507     1   109.5600471 388.275200
    494    493    505     1   109.8000471 387.438400
    494    493    495     1   107.5800459 329.699200
    495    493    505     1   109.8000471 387.438400
    496    502    503     1   109.5600471 388.275200
    496    502    504     1   109.5600471 388.275200
    497    496    502     1   109.8000471 387.438400
    497    496    498     1   107.5800459 329.699200
    498    496    502     1   109.8000471 387.438400
    500    499    508     1   109.7800468 425.094400
    500    499    501     1   108.4600466 328.025600
    501    499    508     1   109.7800468 425.094400
    503    502   1048     1   109.7800468 425.094400
    503    502    504     1   108.4600466 328.025600
    504    502   1048     1   109.7800468 425.094400
    506    505   1078     1   109.7800468 425.094400
    506    505    507     1   108.4600466 328.025600
    507    505   1078     1   109.7800468 425.094400
    510    511    512     1   108.0100461 406.684800
    510    511    513     1   108.0100461 406.684800
    510    514    515     1   108.0100461 406.684800
    510    514    516     1   108.0100461 406.684800
    510    517    518     1   108.0100461 406.684800
    510    517    519     1   108.0100461 406.684800
    511    510    539     1   110.1100470 384.091200
    511    523    524     1   109.8000471 387.438400
    511    523    525     1   109.8000471 387.438400
    512    511    523     1   110.5600475 386.601600
    512    511    513     1   109.7500473 328.025600
    513    511    523     1   110.5600475 386.601600
    514    510    539     1   110.1100470 384.091200
    514    526    527     1   109.8000471 387.438400
    514    526    528     1   109.8000471 387.438400
    515    514    526     1   110.5600475 386.601600
    515    514    516     1   109.7500473 328.025600
    516    514    526     1   110.5600475 386.601600
    517    510    539     1   110.1100470 384.091200
    517    520    521     1   109.8000471 387.438400
    517    520    522     1   109.8000471 387.438400
    518    517    520     1   110.5600475 386.601600
    518    517    519     1   109.7500473 328.025600
    519    517    520     1   110.5600475 386.601600
    520    529    530     1   109.5600471 388.275200
    520    529    531     1   109.5600471 388.275200
    521    520    529     1   109.8000471 387.438400
    521    520    522     1   107.5800459 329.699200
    522    520    529     1   109.8000471 387.438400
    523    535    536     1   109.5600471 388.275200
    523    535    537     1   109.5600471 388.275200
    524    523    535     1   109.8000471 387.438400
    524    523    525     1   107.5800459 329.699200
    525    523    535     1   109.8000471 387.438400
    526    532    533     1   109.5600471 388.275200
    526    532    534     1   109.5600471 388.275200
    527    526    532     1   109.8000471 387.438400
    527    526    528     1   107.5800459 329.699200
    528    526    532     1   109.8000471 387.438400
    530    529    538     1   109.7800468 425.094400
    530    529    531     1   108.4600466 328.025600
    531    529    538     1   109.7800468 425.094400
    533    532   1108     1   109.7800468 425.094400
    533    532    534     1   108.4600466 328.025600
    534    532   1108     1   109.7800468 425.094400
    536    535   1138     1   109.7800468 425.094400
    536    535    537     1   108.4600466 328.025600
    537    535   1138     1   109.7800468 425.094400
    540    541    542     1   108.0100461 406.684800
    540    541    543     1   108.0100461 406.684800
    540    544    545     1   108.0100461 406.684800
    540    544    546     1   108.0100461 406.684800
    540    547    548     1   108.0100461 406.684800
    540    547    549     1   108.0100461 406.684800
    541    540    569     1   110.1100470 384.091200
    541    553    554     1   109.8000471 387.438400
    541    553    555     1   109.8000471 387.438400
    542    541    553     1   110.5600475 386.601600
    542    541    543     1   109.7500473 328.025600
    543    541    553     1   110.5600475 386.601600
    544    540    569     1   110.1100470 384.091200
    544    556    557     1   109.8000471 387.438400
    544    556    558     1   109.8000471 387.438400
    545    544    556     1   110.5600475 386.601600
    545    544    546     1   109.7500473 328.025600
    546    544    556     1   110.5600475 386.601600
    547    540    569     1   110.1100470 384.091200
    547    550    551     1   109.8000471 387.438400
    547    550    552     1   109.8000471 387.438400
    548    547    550     1   110.5600475 386.601600
    548    547    549     1   109.7500473 328.025600
    549    547    550     1   110.5600475 386.601600
    550    559    560     1   109.5600471 388.275200
    550    559    561     1   109.5600471 388.275200
    551    550    559     1   109.8000471 387.438400
    551    550    552     1   107.5800459 329.699200
    552    550    559     1   109.8000471 387.438400
    553    565    566     1   109.5600471 388.275200
    553    565    567     1   109.5600471 388.275200
    554    553    565     1   109.8000471 387.438400
    554    553    555     1   107.5800459 329.699200
    555    553    565     1   109.8000471 387.438400
    556    562    563     1   109.5600471 388.275200
    556    562    564     1   109.5600471 388.275200
    557    556    562     1   109.8000471 387.438400
    557    556    558     1   107.5800459 329.699200
    558    556    562     1   109.8000471 387.438400
    560    559    568     1   109.7800468 425.094400
    560    559    561     1   108.4600466 328.025600
    561    559    568     1   109.7800468 425.094400
    563    562   1168     1   109.7800468 425.094400
    563    562    564     1   108.4600466 328.025600
    564    562   1168     1   109.7800468 425.094400
    566    565   1198     1   109.7800468 425.094400
    566    565    567     1   108.4600466 328.025600
    567    565   1198     1   109.7800468 425.094400
    570    571    572     1   108.0100461 406.684800
    570    571    573     1   108.0100461 406.684800
    570    574    575     1   108.0100461 406.684800
    570    574    576     1   108.0100461 406.684800
    570    577    578     1   108.0100461 406.684800
    570    577    579     1   108.0100461 406.684800
    571    570    599     1   110.1100470 384.091200
    571    583    584     1   109.8000471 387.438400
    571    583    585     1   109.8000471 387.438400
    572    571    583     1   110.5600475 386.601600
    572    571    573     1   109.7500473 328.025600
    573    571    583     1   110.5600475 386.601600
    574    570    599     1   110.1100470 384.091200
    574    586    587     1   109.8000471 387.438400
    574    586    588     1   109.8000471 387.438400
    575    574    586     1   110.5600475 386.601600
    575    574    576     1   109.7500473 328.025600
    576    574    586     1   110.5600475 386.601600
    577    570    599     1   110.1100470 384.091200
    577    580    581     1   109.8000471 387.438400
    577    580    582     1   109.8000471 387.438400
    578    577    580     1   110.5600475 386.601600
    578    577    579     1   109.7500473 328.025600
    579    577    580     1   110.5600475 386.601600
    580    589    590     1   109.5600471 388.275200
    580    589    591     1   109.5600471 388.275200
    581    580    589     1   109.8000471 387.438400
    581    580    582     1   107.5800459 329.699200
    582    580    589     1   109.8000471 387.438400
    583    595    596     1   109.5600471 388.275200
    583    595    597     1   109.5600471 388.275200
    584    583    595     1   109.8000471 387.438400
    584    583    585     1   107.5800459 329.699200
    585    583    595     1   109.8000471 387.438400
    586    592    593     1   109.5600471 388.275200
    586    592    594     1   109.5600471 388.275200
    587    586    592     1   109.8000471 387.438400
    587    586    588     1   107.5800459 329.699200
    588    586    592     1   109.8000471 387.438400
    590    589    598     1   109.7800468 425.094400
    590    589    591     1   108.4600466 328.025600
    591    589    598     1   109.7800468 425.094400
    593    592   1228     1   109.7800468 425.094400
    593    592    594     1   108.4600466 328.025600
    594    592   1228     1   109.7800468 425.094400
    596    595   1258     1   109.7800468 425.094400
    596    595    597     1   108.4600466 328.025600
    597    595   1258     1   109.7800468 425.094400
    600    601    602     1   108.0100461 406.684800
    600    601    603     1   108.0100461 406.684800
    600    604    605     1   108.0100461 406.684800
    600    604    606     1   108.0100461 406.684800
    600    607    608     1   108.0100461 406.684800
    600    607    609     1   108.0100461 406.684800
    601    600    629     1   110.1100470 384.091200
    601    613    614     1   109.8000471 387.438400
    601    613    615     1   109.8000471 387.438400
    602    601    613     1   110.5600475 386.601600
    602    601    603     1   109.7500473 328.025600
    603    601    613     1   110.5600475 386.601600
    604    600    629     1   110.1100470 384.091200
    604    616    617     1   109.8000471 387.438400
    604    616    618     1   109.8000471 387.438400
    605    604    616     1   110.5600475 386.601600
    605    604    606     1   109.7500473 328.025600
    606    604    616     1   110.5600475 386.601600
    607    600    629     1   110.1100470 384.091200
    607    610    611     1   109.8000471 387.438400
    607    610    612     1   109.8000471 387.438400
    608    607    610     1   110.5600475 386.601600
    608    607    609     1   109.7500473 328.025600
    609    607    610     1   110.5600475 386.601600
    610    619    620     1   109.5600471 388.275200
    610    619    621     1   109.5600471 388.275200
    611    610    619     1   109.8000471 387.438400
    611    610    612     1   107.5800459 329.699200
    612    610    619     1   109.8000471 387.438400
    613    625    626     1   109.5600471 388.275200
    613    625    627     1   109.5600471 388.275200
    614    613    625     1   109.8000471 387.438400
    614    613    615     1   107.5800459 329.699200
    615    613    625     1   109.8000471 387.438400
    616    622    623     1   109.5600471 388.275200
    616    622    624     1   109.5600471 388.275200
    617    616    622     1   109.8000471 387.438400
    617    616    618     1   107.5800459 329.699200
    618    616    622     1   109.8000471 387.438400
    620    619    628     1   109.7800468 425.094400
    620    619    621     1   108.4600466 328.025600
    621    619    628     1   109.7800468 425.094400
    623    622   1288     1   109.7800468 425.094400
    623    622    624     1   108.4600466 328.025600
    624    622   1288     1   109.7800468 425.094400
    626    625   1318     1   109.7800468 425.094400
    626    625    627     1   108.4600466 328.025600
    627    625   1318     1   109.7800468 425.094400
    630    631    632     1   108.0100461 406.684800
    630    631    633     1   108.0100461 406.684800
    630    634    635     1   108.0100461 406.684800
    630    634    636     1   108.0100461 406.684800
    630    637    638     1   108.0100461 406.684800
    630    637    639     1   108.0100461 406.684800
    631    630    659     1   110.1100470 384.091200
    631    643    644     1   109.8000471 387.438400
    631    643    645     1   109.8000471 387.438400
    632    631    643     1   110.5600475 386.601600
    632    631    633     1   109.7500473 328.025600
    633    631    643     1   110.5600475 386.601600
    634    630    659     1   110.1100470 384.091200
    634    646    647     1   109.8000471 387.438400
    634    646    648     1   109.8000471 387.438400
    635    634    646     1   110.5600475 386.601600
    635    634    636     1   109.7500473 328.025600
    636    634    646     1   110.5600475 386.601600
    637    630    659     1   110.1100470 384.091200
    637    640    641     1   109.8000471 387.438400
    637    640    642     1   109.8000471 387.438400
    638    637    640     1   110.5600475 386.601600
    638    637    639     1   109.7500473 328.025600
    639    637    640     1   110.5600475 386.601600
    640    649    650     1   109.5600471 388.275200
    640    649    651     1   109.5600471 388.275200
    641    640    649     1   109.8000471 387.438400
    641    640    642     1   107.5800459 329.699200
    642    640    649     1   109.8000471 387.438400
    643    655    656     1   109.5600471 388.275200
    643    655    657     1   109.5600471 388.275200
    644    643    655     1   109.8000471 387.438400
    644    643    645     1   107.5800459 329.699200
    645    643    655     1   109.8000471 387.438400
    646    652    653     1   109.5600471 388.275200
    646    652    654     1   109.5600471 388.275200
    647    646    652     1   109.8000471 387.438400
    647    646    648     1   107.5800459 329.699200
    648    646    652     1   109.8000471 387.438400
    650    649    658     1   109.7800468 425.094400
    650    649    651     1   108.4600466 328.025600
    651    649    658     1   109.7800468 425.094400
    653    652   1348     1   109.7800468 425.094400
    653    652    654     1   108.4600466 328.025600
    654    652   1348     1   109.7800468 425.094400
    656    655   1378     1   109.7800468 425.094400
    656    655    657     1   108.4600466 328.025600
    657    655   1378     1   109.7800468 425.094400
    660    661    662     1   108.0100461 406.684800
    660    661    663     1   108.0100461 406.684800
    660    664    665     1   108.0100461 406.684800
    660    664    666     1   108.0100461 406.684800
    660    667    668     1   108.0100461 406.684800
    660    667    669     1   108.0100461 406.684800
    661    660    689     1   110.1100470 384.091200
    661    673    674     1   109.8000471 387.438400
    661    673    675     1   109.8000471 387.438400
    662    661    673     1   110.5600475 386.601600
    662    661    663     1   109.7500473 328.025600
    663    661    673     1   110.5600475 386.601600
    664    660    689     1   110.1100470 384.091200
    664    676    677     1   109.8000471 387.438400
    664    676    678     1   109.8000471 387.438400
    665    664    676     1   110.5600475 386.601600
    665    664    666     1   109.7500473 328.025600
    666    664    676     1   110.5600475 386.601600
    667    660    689     1   110.1100470 384.091200
    667    670    671     1   109.8000471 387.438400
    667    670    672     1   109.8000471 387.438400
    668    667    670     1   110.5600475 386.601600
    668    667    669     1   109.7500473 328.025600
    669    667    670     1   110.5600475 386.601600
    670    679    680     1   109.5600471 388.275200
    670    679    681     1   109.5600471 388.275200
    671    670    679     1   109.8000471 387.438400
    671    670    672     1   107.5800459 329.699200
    672    670    679     1   109.8000471 387.438400
    673    685    686     1   109.5600471 388.275200
    673    685    687     1   109.5600471 388.275200
    674    673    685     1   109.8000471 387.438400
    674    673    675     1   107.5800459 329.699200
    675    673    685     1   109.8000471 387.438400
    676    682    683     1   109.5600471 388.275200
    676    682    684     1   109.5600471 388.275200
    677    676    682     1   109.8000471 387.438400
    677    676    678     1   107.5800459 329.699200
    678    676    682     1   109.8000471 387.438400
    680    679    688     1   109.7800468 425.094400
    680    679    681     1   108.4600466 328.025600
    681    679    688     1   109.7800468 425.094400
    683    682   1408     1   109.7800468 425.094400
    683    682    684     1   108.4600466 328.025600
    684    682   1408     1   109.7800468 425.094400
    686    685   1438     1   109.7800468 425.094400
    686    685    687     1   108.4600466 328.025600
    687    685   1438     1   109.7800468 425.094400
    690    691    692     1   108.0100461 406.684800
    690    691    693     1   108.0100461 406.684800
    690    694    695     1   108.0100461 406.684800
    690    694    696     1   108.0100461 406.684800
    690    697    698     1   108.0100461 406.684800
    690    697    699     1   108.0100461 406.684800
    691    690    719     1   110.1100470 384.091200
    691    703    704     1   109.8000471 387.438400
    691    703    705     1   109.8000471 387.438400
    692    691    703     1   110.5600475 386.601600
    692    691    693     1   109.7500473 328.025600
    693    691    703     1   110.5600475 386.601600
    694    690    719     1   110.1100470 384.091200
    694    706    707     1   109.8000471 387.438400
    694    706    708     1   109.8000471 387.438400
    695    694    706     1   110.5600475 386.601600
    695    694    696     1   109.7500473 328.025600
    696    694    706     1   110.5600475 386.601600
    697    690    719     1   110.1100470 384.091200
    697    700    701     1   109.8000471 387.438400
    697    700    702     1   109.8000471 387.438400
    698    697    700     1   110.5600475 386.601600
    698    697    699     1   109.7500473 328.025600
    699    697    700     1   110.5600475 386.601600
    700    709    710     1   109.5600471 388.275200
    700    709    711     1   109.5600471 388.275200
    701    700    709     1   109.8000471 387.438400
    701    700    702     1   107.5800459 329.699200
    702    700    709     1   109.8000471 387.438400
    703    715    716     1   109.5600471 388.275200
    703    715    717     1   109.5600471 388.275200
    704    703    715     1   109.8000471 387.438400
    704    703    705     1   107.5800459 329.699200
    705    703    715     1   109.8000471 387.438400
    706    712    713     1   109.5600471 388.275200
    706    712    714     1   109.5600471 388.275200
    707    706    712     1   109.8000471 387.438400
    707    706    708     1   107.5800459 329.699200
    708    706    712     1   109.8000471 387.438400
    710    709    718     1   109.7800468 425.094400
    710    709    711     1   108.4600466 328.025600
    711    709    718     1   109.7800468 425.094400
    713    712   1468     1   109.7800468 425.094400
    713    712    714     1   108.4600466 328.025600
    714    712   1468     1   109.7800468 425.094400
    716    715   1498     1   109.7800468 425.094400
    716    715    717     1   108.4600466 328.025600
    717    715   1498     1   109.7800468 425.094400
    720    721    722     1   108.0100461 406.684800
    720    721    723     1   108.0100461 406.684800
    720    724    725     1   108.0100461 406.684800
    720    724    726     1   108.0100461 406.684800
    720    727    728     1   108.0100461 406.684800
    720    727    729     1   108.0100461 406.684800
    721    720    749     1   110.1100470 384.091200
    721    733    734     1   109.8000471 387.438400
    721    733    735     1   109.8000471 387.438400
    722    721    733     1   110.5600475 386.601600
    722    721    723     1   109.7500473 328.025600
    723    721    733     1   110.5600475 386.601600
    724    720    749     1   110.1100470 384.091200
    724    736    737     1   109.8000471 387.438400
    724    736    738     1   109.8000471 387.438400
    725    724    736     1   110.5600475 386.601600
    725    724    726     1   109.7500473 328.025600
    726    724    736     1   110.5600475 386.601600
    727    720    749     1   110.1100470 384.091200
    727    730    731     1   109.8000471 387.438400
    727    730    732     1   109.8000471 387.438400
    728    727    730     1   110.5600475 386.601600
    728    727    729     1   109.7500473 328.025600
    729    727    730     1   110.5600475 386.601600
    730    739    740     1   109.5600471 388.275200
    730    739    741     1   109.5600471 388.275200
    731    730    739     1   109.8000471 387.438400
    731    730    732     1   107.5800459 329.699200
    732    730    739     1   109.8000471 387.438400
    733    745    746     1   109.5600471 388.275200
    733    745    747     1   109.5600471 388.275200
    734    733    745     1   109.8000471 387.438400
    734    733    735     1   107.5800459 329.699200
    735    733    745     1   109.8000471 387.438400
    736    742    743     1   109.5600471 388.275200
    736    742    744     1   109.5600471 388.275200
    737    736    742     1   109.8000471 387.438400
    737    736    738     1   107.5800459 329.699200
    738    736    742     1   109.8000471 387.438400
    740    739    748     1   109.7800468 425.094400
    740    739    741     1   108.4600466 328.025600
    741    739    748     1   109.7800468 425.094400
    743    742   1528     1   109.7800468 425.094400
    743    742    744     1   108.4600466 328.025600
    744    742   1528     1   109.7800468 425.094400
    746    745   1558     1   109.7800468 425.094400
    746    745    747     1   108.4600466 328.025600
    747    745   1558     1   109.7800468 425.094400
    750    751    752     1   108.0100461 406.684800
    750    751    753     1   108.0100461 406.684800
    750    754    755     1   108.0100461 406.684800
    750    754    756     1   108.0100461 406.684800
    750    757    758     1   108.0100461 406.684800
    750    757    759     1   108.0100461 406.684800
    751    750    779     1   110.1100470 384.091200
    751    763    764     1   109.8000471 387.438400
    751    763    765     1   109.8000471 387.438400
    752    751    763     1   110.5600475 386.601600
    752    751    753     1   109.7500473 328.025600
    753    751    763     1   110.5600475 386.601600
    754    750    779     1   110.1100470 384.091200
    754    766    767     1   109.8000471 387.438400
    754    766    768     1   109.8000471 387.438400
    755    754    766     1   110.5600475 386.601600
    755    754    756     1   109.7500473 328.025600
    756    754    766     1   110.5600475 386.601600
    757    750    779     1   110.1100470 384.091200
    757    760    761     1   109.8000471 387.438400
    757    760    762     1   109.8000471 387.438400
    758    757    760     1   110.5600475 386.601600
    758    757    759     1   109.7500473 328.025600
    759    757    760     1   110.5600475 386.601600
    760    769    770     1   109.5600471 388.275200
    760    769    771     1   109.5600471 388.275200
    761    760    769     1   109.8000471 387.438400
    761    760    762     1   107.5800459 329.699200
    762    760    769     1   109.8000471 387.438400
    763    775    776     1   109.5600471 388.275200
    763    775    777     1   109.5600471 388.275200
    764    763    775     1   109.8000471 387.438400
    764    763    765     1   107.5800459 329.699200
    765    763    775     1   109.8000471 387.438400
    766    772    773     1   109.5600471 388.275200
    766    772    774     1   109.5600471 388.275200
    767    766    772     1   109.8000471 387.438400
    767    766    768     1   107.5800459 329.699200
    768    766    772     1   109.8000471 387.438400
    770    769    778     1   109.7800468 425.094400
    770    769    771     1   108.4600466 328.025600
    771    769    778     1   109.7800468 425.094400
    773    772   1588     1   109.7800468 425.094400
    773    772    774     1   108.4600466 328.025600
    774    772   1588     1   109.7800468 425.094400
    776    775   1618     1   109.7800468 425.094400
    776    775    777     1   108.4600466 328.025600
    777    775   1618     1   109.7800468 425.094400
    780    781    782     1   108.0100461 406.684800
    780    781    783     1   108.0100461 406.684800
    780    784    785     1   108.0100461 406.684800
    780    784    786     1   108.0100461 406.684800
    780    787    788     1   108.0100461 406.684800
    780    787    789     1   108.0100461 406.684800
    781    780    809     1   110.1100470 384.091200
    781    793    794     1   109.8000471 387.438400
    781    793    795     1   109.8000471 387.438400
    782    781    793     1   110.5600475 386.601600
    782    781    783     1   109.7500473 328.025600
    783    781    793     1   110.5600475 386.601600
    784    780    809     1   110.1100470 384.091200
    784    796    797     1   109.8000471 387.438400
    784    796    798     1   109.8000471 387.438400
    785    784    796     1   110.5600475 386.601600
    785    784    786     1   109.7500473 328.025600
    786    784    796     1   110.5600475 386.601600
    787    780    809     1   110.1100470 384.091200
    787    790    791     1   109.8000471 387.438400
    787    790    792     1   109.8000471 387.438400
    788    787    790     1   110.5600475 386.601600
    788    787    789     1   109.7500473 328.025600
    789    787    790     1   110.5600475 386.601600
    790    799    800     1   109.5600471 388.275200
    790    799    801     1   109.5600471 388.275200
    791    790    799     1   109.8000471 387.438400
    791    790    792     1   107.5800459 329.699200
    792    790    799     1   109.8000471 387.438400
    793    805    806     1   109.5600471 388.275200
    793    805    807     1   109.5600471 388.275200
    794    793    805     1   109.8000471 387.438400
    794    793    795     1   107.5800459 329.699200
    795    793    805     1   109.8000471 387.438400
    796    802    803     1   109.5600471 388.275200
    796    802    804     1   109.5600471 388.275200
    797    796    802     1   109.8000471 387.438400
    797    796    798     1   107.5800459 329.699200
    798    796    802     1   109.8000471 387.438400
    800    799    808     1   109.7800468 425.094400
    800    799    801     1   108.4600466 328.025600
    801    799    808     1   109.7800468 425.094400
    803    802   1648     1   109.7800468 425.094400
    803    802    804     1   108.4600466 328.025600
    804    802   1648     1   109.7800468 425.094400
    806    805   1678     1   109.7800468 425.094400
    806    805    807     1   108.4600466 328.025600
    807    805   1678     1   109.7800468 425.094400
    810    811    812     1   108.0100461 406.684800
    810    811    813     1   108.0100461 406.684800
    810    814    815     1   108.0100461 406.684800
    810    814    816     1   108.0100461 406.684800
    810    817    818     1   108.0100461 406.684800
    810    817    819     1   108.0100461 406.684800
    811    810    839     1   110.1100470 384.091200
    811    823    824     1   109.8000471 387.438400
    811    823    825     1   109.8000471 387.438400
    812    811    823     1   110.5600475 386.601600
    812    811    813     1   109.7500473 328.025600
    813    811    823     1   110.5600475 386.601600
    814    810    839     1   110.1100470 384.091200
    814    826    827     1   109.8000471 387.438400
    814    826    828     1   109.8000471 387.438400
    815    814    826     1   110.5600475 386.601600
    815    814    816     1   109.7500473 328.025600
    816    814    826     1   110.5600475 386.601600
    817    810    839     1   110.1100470 384.091200
    817    820    821     1   109.8000471 387.438400
    817    820    822     1   109.8000471 387.438400
    818    817    820     1   110.5600475 386.601600
    818    817    819     1   109.7500473 328.025600
    819    817    820     1   110.5600475 386.601600
    820    829    830     1   109.5600471 388.275200
    820    829    831     1   109.5600471 388.275200
    821    820    829     1   109.8000471 387.438400
    821    820    822     1   107.5800459 329.699200
    822    820    829     1   109.8000471 387.438400
    823    835    836     1   109.5600471 388.275200
    823    835    837     1   109.5600471 388.275200
    824    823    835     1   109.8000471 387.438400
    824    823    825     1   107.5800459 329.699200
    825    823    835     1   109.8000471 387.438400
    826    832    833     1   109.5600471 388.275200
    826    832    834     1   109.5600471 388.275200
    827    826    832     1   109.8000471 387.438400
    827    826    828     1   107.5800459 329.699200
    828    826    832     1   109.8000471 387.438400
    830    829    838     1   109.7800468 425.094400
    830    829    831     1   108.4600466 328.025600
    831    829    838     1   109.7800468 425.094400
    833    832   1708     1   109.7800468 425.094400
    833    832    834     1   108.4600466 328.025600
    834    832   1708     1   109.7800468 425.094400
    836    835   1738     1   109.7800468 425.094400
    836    835    837     1   108.4600466 328.025600
    837    835   1738     1   109.7800468 425.094400
    840    841    842     1   108.0100461 406.684800
    840    841    843     1   108.0100461 406.684800
    840    844    845     1   108.0100461 406.684800
    840    844    846     1   108.0100461 406.684800
    840    847    848     1   108.0100461 406.684800
    840    847    849     1   108.0100461 406.684800
    841    840    869     1   110.1100470 384.091200
    841    853    854     1   109.8000471 387.438400
    841    853    855     1   109.8000471 387.438400
    842    841    853     1   110.5600475 386.601600
    842    841    843     1   109.7500473 328.025600
    843    841    853     1   110.5600475 386.601600
    844    840    869     1   110.1100470 384.091200
    844    856    857     1   109.8000471 387.438400
    844    856    858     1   109.8000471 387.438400
    845    844    856     1   110.5600475 386.601600
    845    844    846     1   109.7500473 328.025600
    846    844    856     1   110.5600475 386.601600
    847    840    869     1   110.1100470 384.091200
    847    850    851     1   109.8000471 387.438400
    847    850    852     1   109.8000471 387.438400
    848    847    850     1   110.5600475 386.601600
    848    847    849     1   109.7500473 328.025600
    849    847    850     1   110.5600475 386.601600
    850    859    860     1   109.5600471 388.275200
    850    859    861     1   109.5600471 388.275200
    851    850    859     1   109.8000471 387.438400
    851    850    852     1   107.5800459 329.699200
    852    850    859     1   109.8000471 387.438400
    853    865    866     1   109.5600471 388.275200
    853    865    867     1   109.5600471 388.275200
    854    853    865     1   109.8000471 387.438400
    854    853    855     1   107.5800459 329.699200
    855    853    865     1   109.8000471 387.438400
    856    862    863     1   109.5600471 388.275200
    856    862    864     1   109.5600471 388.275200
    857    856    862     1   109.8000471 387.438400
    857    856    858     1   107.5800459 329.699200
    858    856    862     1   109.8000471 387.438400
    860    859    868     1   109.7800468 425.094400
    860    859    861     1   108.4600466 328.025600
    861    859    868     1   109.7800468 425.094400
    863    862   1768     1   109.7800468 425.094400
    863    862    864     1   108.4600466 328.025600
    864    862   1768     1   109.7800468 425.094400
    866    865   1798     1   109.7800468 425.094400
    866    865    867     1   108.4600466 328.025600
    867    865   1798     1   109.7800468 425.094400
    870    871    872     1   108.0100461 406.684800
    870    871    873     1   108.0100461 406.684800
    870    874    875     1   108.0100461 406.684800
    870    874    876     1   108.0100461 406.684800
    870    877    878     1   108.0100461 406.684800
    870    877    879     1   108.0100461 406.684800
    871    870    899     1   110.1100470 384.091200
    871    883    884     1   109.8000471 387.438400
    871    883    885     1   109.8000471 387.438400
    872    871    883     1   110.5600475 386.601600
    872    871    873     1   109.7500473 328.025600
    873    871    883     1   110.5600475 386.601600
    874    870    899     1   110.1100470 384.091200
    874    886    887     1   109.8000471 387.438400
    874    886    888     1   109.8000471 387.438400
    875    874    886     1   110.5600475 386.601600
    875    874    876     1   109.7500473 328.025600
    876    874    886     1   110.5600475 386.601600
    877    870    899     1   110.1100470 384.091200
    877    880    881     1   109.8000471 387.438400
    877    880    882     1   109.8000471 387.438400
    878    877    880     1   110.5600475 386.601600
    878    877    879     1   109.7500473 328.025600
    879    877    880     1   110.5600475 386.601600
    880    889    890     1   109.5600471 388.275200
    880    889    891     1   109.5600471 388.275200
    881    880    889     1   109.8000471 387.438400
    881    880    882     1   107.5800459 329.699200
    882    880    889     1   109.8000471 387.438400
    883    895    896     1   109.5600471 388.275200
    883    895    897     1   109.5600471 388.275200
    884    883    895     1   109.8000471 387.438400
    884    883    885     1   107.5800459 329.699200
    885    883    895     1   109.8000471 387.438400
    886    892    893     1   109.5600471 388.275200
    886    892    894     1   109.5600471 388.275200
    887    886    892     1   109.8000471 387.438400
    887    886    888     1   107.5800459 329.699200
    888    886    892     1   109.8000471 387.438400
    890    889    898     1   109.7800468 425.094400
    890    889    891     1   108.4600466 328.025600
    891    889    898     1   109.7800468 425.094400
    893    892   1828     1   109.7800468 425.094400
    893    892    894     1   108.4600466 328.025600
    894    892   1828     1   109.7800468 425.094400
    896    895   1858     1   109.7800468 425.094400
    896    895    897     1   108.4600466 328.025600
    897    895   1858     1   109.7800468 425.094400
    900    901    902     1   108.0100461 406.684800
    900    901    903     1   108.0100461 406.684800
    900    904    905     1   108.0100461 406.684800
    900    904    906     1   108.0100461 406.684800
    900    907    908     1   108.0100461 406.684800
    900    907    909     1   108.0100461 406.684800
    901    900    929     1   110.1100470 384.091200
    901    913    914     1   109.8000471 387.438400
    901    913    915     1   109.8000471 387.438400
    902    901    913     1   110.5600475 386.601600
    902    901    903     1   109.7500473 328.025600
    903    901    913     1   110.5600475 386.601600
    904    900    929     1   110.1100470 384.091200
    904    916    917     1   109.8000471 387.438400
    904    916    918     1   109.8000471 387.438400
    905    904    916     1   110.5600475 386.601600
    905    904    906     1   109.7500473 328.025600
    906    904    916     1   110.5600475 386.601600
    907    900    929     1   110.1100470 384.091200
    907    910    911     1   109.8000471 387.438400
    907    910    912     1   109.8000471 387.438400
    908    907    910     1   110.5600475 386.601600
    908    907    909     1   109.7500473 328.025600
    909    907    910     1   110.5600475 386.601600
    910    919    920     1   109.5600471 388.275200
    910    919    921     1   109.5600471 388.275200
    911    910    919     1   109.8000471 387.438400
    911    910    912     1   107.5800459 329.699200
    912    910    919     1   109.8000471 387.438400
    913    925    926     1   109.5600471 388.275200
    913    925    927     1   109.5600471 388.275200
    914    913    925     1   109.8000471 387.438400
    914    913    915     1   107.5800459 329.699200
    915    913    925     1   109.8000471 387.438400
    916    922    923     1   109.5600471 388.275200
    916    922    924     1   109.5600471 388.275200
    917    916    922     1   109.8000471 387.438400
    917    916    918     1   107.5800459 329.699200
    918    916    922     1   109.8000471 387.438400
    920    919    928     1   109.7800468 425.094400
    920    919    921     1   108.4600466 328.025600
    921    919    928     1   109.7800468 425.094400
    923    922   1872     1   109.7800468 425.094400
    923    922    924     1   108.4600466 328.025600
    924    922   1872     1   109.7800468 425.094400
    926    925   1886     1   109.7800468 425.094400
    926    925    927     1   108.4600466 328.025600
    927    925   1886     1   109.7800468 425.094400
    930    931    932     1   108.0100461 406.684800
    930    931    933     1   108.0100461 406.684800
    930    934    935     1   108.0100461 406.684800
    930    934    936     1   108.0100461 406.684800
    930    937    938     1   108.0100461 406.684800
    930    937    939     1   108.0100461 406.684800
    931    930    959     1   110.1100470 384.091200
    931    943    944     1   109.8000471 387.438400
    931    943    945     1   109.8000471 387.438400
    932    931    943     1   110.5600475 386.601600
    932    931    933     1   109.7500473 328.025600
    933    931    943     1   110.5600475 386.601600
    934    930    959     1   110.1100470 384.091200
    934    946    947     1   109.8000471 387.438400
    934    946    948     1   109.8000471 387.438400
    935    934    946     1   110.5600475 386.601600
    935    934    936     1   109.7500473 328.025600
    936    934    946     1   110.5600475 386.601600
    937    930    959     1   110.1100470 384.091200
    937    940    941     1   109.8000471 387.438400
    937    940    942     1   109.8000471 387.438400
    938    937    940     1   110.5600475 386.601600
    938    937    939     1   109.7500473 328.025600
    939    937    940     1   110.5600475 386.601600
    940    949    950     1   109.5600471 388.275200
    940    949    951     1   109.5600471 388.275200
    941    940    949     1   109.8000471 387.438400
    941    940    942     1   107.5800459 329.699200
    942    940    949     1   109.8000471 387.438400
    943    955    956     1   109.5600471 388.275200
    943    955    957     1   109.5600471 388.275200
    944    943    955     1   109.8000471 387.438400
    944    943    945     1   107.5800459 329.699200
    945    943    955     1   109.8000471 387.438400
    946    952    953     1   109.5600471 388.275200
    946    952    954     1   109.5600471 388.275200
    947    946    952     1   109.8000471 387.438400
    947    946    948     1   107.5800459 329.699200
    948    946    952     1   109.8000471 387.438400
    950    949    958     1   109.7800468 425.094400
    950    949    951     1   108.4600466 328.025600
    951    949    958     1   109.7800468 425.094400
    953    952   1900     1   109.7800468 425.094400
    953    952    954     1   108.4600466 328.025600
    954    952   1900     1   109.7800468 425.094400
    956    955   1914     1   109.7800468 425.094400
    956    955    957     1   108.4600466 328.025600
    957    955   1914     1   109.7800468 425.094400
    960    961    962     1   108.0100461 406.684800
    960    961    963     1   108.0100461 406.684800
    960    964    965     1   108.0100461 406.684800
    960    964    966     1   108.0100461 406.684800
    960    967    968     1   108.0100461 406.684800
    960    967    969     1   108.0100461 406.684800
    961    960    989     1   110.1100470 384.091200
    961    973    974     1   109.8000471 387.438400
    961    973    975     1   109.8000471 387.438400
    962    961    973     1   110.5600475 386.601600
    962    961    963     1   109.7500473 328.025600
    963    961    973     1   110.5600475 386.601600
    964    960    989     1   110.1100470 384.091200
    964    976    977     1   109.8000471 387.438400
    964    976    978     1   109.8000471 387.438400
    965    964    976     1   110.5600475 386.601600
    965    964    966     1   109.7500473 328.025600
    966    964    976     1   110.5600475 386.601600
    967    960    989     1   110.1100470 384.091200
    967    970    971     1   109.8000471 387.438400
    967    970    972     1   109.8000471 387.438400
    968    967    970     1   110.5600475 386.601600
    968    967    969     1   109.7500473 328.025600
    969    967    970     1   110.5600475 386.601600
    970    979    980     1   109.5600471 388.275200
    970    979    981     1   109.5600471 388.275200
    971    970    979     1   109.8000471 387.438400
    971    970    972     1   107.5800459 329.699200
    972    970    979     1   109.8000471 387.438400
    973    985    986     1   109.5600471 388.275200
    973    985    987     1   109.5600471 388.275200
    974    973    985     1   109.8000471 387.438400
    974    973    975     1   107.5800459 329.699200
    975    973    985     1   109.8000471 387.438400
    976    982    983     1   109.5600471 388.275200
    976    982    984     1   109.5600471 388.275200
    977    976    982     1   109.8000471 387.438400
    977    976    978     1   107.5800459 329.699200
    978    976    982     1   109.8000471 387.438400
    980    979    988     1   109.7800468 425.094400
    980    979    981     1   108.4600466 328.025600
    981    979    988     1   109.7800468 425.094400
    983    982   1928     1   109.7800468 425.094400
    983    982    984     1   108.4600466 328.025600
    984    982   1928     1   109.7800468 425.094400
    986    985   1942     1   109.7800468 425.094400
    986    985    987     1   108.4600466 328.025600
    987    985   1942     1   109.7800468 425.094400
    990    991    992     1   108.0100461 406.684800
    990    991    993     1   108.0100461 406.684800
    990    994    995     1   108.0100461 406.684800
    990    994    996     1   108.0100461 406.684800
    990    997    998     1   108.0100461 406.684800
    990    997    999     1   108.0100461 406.684800
    991    990   1019     1   110.1100470 384.091200
    991   1003   1004     1   109.8000471 387.438400
    991   1003   1005     1   109.8000471 387.438400
    992    991   1003     1   110.5600475 386.601600
    992    991    993     1   109.7500473 328.025600
    993    991   1003     1   110.5600475 386.601600
    994    990   1019     1   110.1100470 384.091200
    994   1006   1007     1   109.8000471 387.438400
    994   1006   1008     1   109.8000471 387.438400
    995    994   1006     1   110.5600475 386.601600
    995    994    996     1   109.7500473 328.025600
    996    994   1006     1   110.5600475 386.601600
    997    990   1019     1   110.1100470 384.091200
    997   1000   1001     1   109.8000471 387.438400
    997   1000   1002     1   109.8000471 387.438400
    998    997   1000     1   110.5600475 386.601600
    998    997    999     1   109.7500473 328.025600
    999    997   1000     1   110.5600475 386.601600
   1000   1009   1010     1   109.5600471 388.275200
   1000   1009   1011     1   109.5600471 388.275200
   1001   1000   1009     1   109.8000471 387.438400
   1001   1000   1002     1   107.5800459 329.699200
   1002   1000   1009     1   109.8000471 387.438400
   1003   1015   1016     1   109.5600471 388.275200
   1003   1015   1017     1   109.5600471 388.275200
   1004   1003   1015     1   109.8000471 387.438400
   1004   1003   1005     1   107.5800459 329.699200
   1005   1003   1015     1   109.8000471 387.438400
   1006   1012   1013     1   109.5600471 388.275200
   1006   1012   1014     1   109.5600471 388.275200
   1007   1006   1012     1   109.8000471 387.438400
   1007   1006   1008     1   107.5800459 329.699200
   1008   1006   1012     1   109.8000471 387.438400
   1010   1009   1018     1   109.7800468 425.094400
   1010   1009   1011     1   108.4600466 328.025600
   1011   1009   1018     1   109.7800468 425.094400
   1013   1012   1956     1   109.7800468 425.094400
   1013   1012   1014     1   108.4600466 328.025600
   1014   1012   1956     1   109.7800468 425.094400
   1016   1015   1970     1   109.7800468 425.094400
   1016   1015   1017     1   108.4600466 328.025600
   1017   1015   1970     1   109.7800468 425.094400
   1020   1021   1022     1   108.0100461 406.684800
   1020   1021   1023     1   108.0100461 406.684800
   1020   1024   1025     1   108.0100461 406.684800
   1020   1024   1026     1   108.0100461 406.684800
   1020   1027   1028     1   108.0100461 406.684800
   1020   1027   1029     1   108.0100461 406.684800
   1021   1020   1049     1   110.1100470 384.091200
   1021   1033   1034     1   109.8000471 387.438400
   1021   1033   1035     1   109.8000471 387.438400
   1022   1021   1033     1   110.5600475 386.601600
   1022   1021   1023     1   109.7500473 328.025600
   1023   1021   1033     1   110.5600475 386.601600
   1024   1020   1049     1   110.1100470 384.091200
   1024   1036   1037     1   109.8000471 387.438400
   1024   1036   1038     1   109.8000471 387.438400
   1025   1024   1036     1   110.5600475 386.601600
   1025   1024   1026     1   109.7500473 328.025600
   1026   1024   1036     1   110.5600475 386.601600
   1027   1020   1049     1   110.1100470 384.091200
   1027   1030   1031     1   109.8000471 387.438400
   1027   1030   1032     1   109.8000471 387.438400
   1028   1027   1030     1   110.5600475 386.601600
   1028   1027   1029     1   109.7500473 328.025600
   1029   1027   1030     1   110.5600475 386.601600
   1030   1039   1040     1   109.5600471 388.275200
   1030   1039   1041     1   109.5600471 388.275200
   1031   1030   1039     1   109.8000471 387.438400
   1031   1030   1032     1   107.5800459 329.699200
   1032   1030   1039     1   109.8000471 387.438400
   1033   1045   1046     1   109.5600471 388.275200
   1033   1045   1047     1   109.5600471 388.275200
   1034   1033   1045     1   109.8000471 387.438400
   1034   1033   1035     1   107.5800459 329.699200
   1035   1033   1045     1   109.8000471 387.438400
   1036   1042   1043     1   109.5600471 388.275200
   1036   1042   1044     1   109.5600471 388.275200
   1037   1036   1042     1   109.8000471 387.438400
   1037   1036   1038     1   107.5800459 329.699200
   1038   1036   1042     1   109.8000471 387.438400
   1040   1039   1048     1   109.7800468 425.094400
   1040   1039   1041     1   108.4600466 328.025600
   1041   1039   1048     1   109.7800468 425.094400
   1043   1042   1984     1   109.7800468 425.094400
   1043   1042   1044     1   108.4600466 328.025600
   1044   1042   1984     1   109.7800468 425.094400
   1046   1045   1998     1   109.7800468 425.094400
   1046   1045   1047     1   108.4600466 328.025600
   1047   1045   1998     1   109.7800468 425.094400
   1050   1051   1052     1   108.0100461 406.684800
   1050   1051   1053     1   108.0100461 406.684800
   1050   1054   1055     1   108.0100461 406.684800
   1050   1054   1056     1   108.0100461 406.684800
   1050   1057   1058     1   108.0100461 406.684800
   1050   1057   1059     1   108.0100461 406.684800
   1051   1050   1079     1   110.1100470 384.091200
   1051   1063   1064     1   109.8000471 387.438400
   1051   1063   1065     1   109.8000471 387.438400
   1052   1051   1063     1   110.5600475 386.601600
   1052   1051   1053     1   109.7500473 328.025600
   1053   1051   1063     1   110.5600475 386.601600
   1054   1050   1079     1   110.1100470 384.091200
   1054   1066   1067     1   109.8000471 387.438400
   1054   1066   1068     1   109.8000471 387.438400
   1055   1054   1066     1   110.5600475 386.601600
   1055   1054   1056     1   109.7500473 328.025600
   1056   1054   1066     1   110.5600475 386.601600
   1057   1050   1079     1   110.1100470 384.091200
   1057   1060   1061     1   109.8000471 387.438400
   1057   1060   1062     1   109.8000471 387.438400
   1058   1057   1060     1   110.5600475 386.601600
   1058   1057   1059     1   109.7500473 328.025600
   1059   1057   1060     1   110.5600475 386.601600
   1060   1069   1070     1   109.5600471 388.275200
   1060   1069   1071     1   109.5600471 388.275200
   1061   1060   1069     1   109.8000471 387.438400
   1061   1060   1062     1   107.5800459 329.699200
   1062   1060   1069     1   109.8000471 387.438400
   1063   1075   1076     1   109.5600471 388.275200
   1063   1075   1077     1   109.5600471 388.275200
   1064   1063   1075     1   109.8000471 387.438400
   1064   1063   1065     1   107.5800459 329.699200
   1065   1063   1075     1   109.8000471 387.438400
   1066   1072   1073     1   109.5600471 388.275200
   1066   1072   1074     1   109.5600471 388.275200
   1067   1066   1072     1   109.8000471 387.438400
   1067   1066   1068     1   107.5800459 329.699200
   1068   1066   1072     1   109.8000471 387.438400
   1070   1069   1078     1   109.7800468 425.094400
   1070   1069   1071     1   108.4600466 328.025600
   1071   1069   1078     1   109.7800468 425.094400
   1073   1072   2012     1   109.7800468 425.094400
   1073   1072   1074     1   108.4600466 328.025600
   1074   1072   2012     1   109.7800468 425.094400
   1076   1075   2026     1   109.7800468 425.094400
   1076   1075   1077     1   108.4600466 328.025600
   1077   1075   2026     1   109.7800468 425.094400
   1080   1081   1082     1   108.0100461 406.684800
   1080   1081   1083     1   108.0100461 406.684800
   1080   1084   1085     1   108.0100461 406.684800
   1080   1084   1086     1   108.0100461 406.684800
   1080   1087   1088     1   108.0100461 406.684800
   1080   1087   1089     1   108.0100461 406.684800
   1081   1080   1109     1   110.1100470 384.091200
   1081   1093   1094     1   109.8000471 387.438400
   1081   1093   1095     1   109.8000471 387.438400
   1082   1081   1093     1   110.5600475 386.601600
   1082   1081   1083     1   109.7500473 328.025600
   1083   1081   1093     1   110.5600475 386.601600
   1084   1080   1109     1   110.1100470 384.091200
   1084   1096   1097     1   109.8000471 387.438400
   1084   1096   1098     1   109.8000471 387.438400
   1085   1084   1096     1   110.5600475 386.601600
   1085   1084   1086     1   109.7500473 328.025600
   1086   1084   1096     1   110.5600475 386.601600
   1087   1080   1109     1   110.1100470 384.091200
   1087   1090   1091     1   109.8000471 387.438400
   1087   1090   1092     1   109.8000471 387.438400
   1088   1087   1090     1   110.5600475 386.601600
   1088   1087   1089     1   109.7500473 328.025600
   1089   1087   1090     1   110.5600475 386.601600
   1090   1099   1100     1   109.5600471 388.275200
   1090   1099   1101     1   109.5600471 388.275200
   1091   1090   1099     1   109.8000471 387.438400
   1091   1090   1092     1   107.5800459 329.699200
   1092   1090   1099     1   109.8000471 387.438400
   1093   1105   1106     1   109.5600471 388.275200
   1093   1105   1107     1   109.5600471 388.275200
   1094   1093   1105     1   109.8000471 387.438400
   1094   1093   1095     1   107.5800459 329.699200
   1095   1093   1105     1   109.8000471 387.438400
   1096   1102   1103     1   109.5600471 388.275200
   1096   1102   1104     1   109.5600471 388.275200
   1097   1096   1102     1   109.8000471 387.438400
   1097   1096   1098     1   107.5800459 329.699200
   1098   1096   1102     1   109.8000471 387.438400
   1100   1099   1108     1   109.7800468 425.094400
   1100   1099   1101     1   108.4600466 328.025600
   1101   1099   1108     1   109.7800468 425.094400
   1103   1102   2040     1   109.7800468 425.094400
   1103   1102   1104     1   108.4600466 328.025600
   1104   1102   2040     1   109.7800468 425.094400
   1106   1105   2054     1   109.7800468 425.094400
   1106   1105   1107     1   108.4600466 328.025600
   1107   1105   2054     1   109.7800468 425.094400
   1110   1111   1112     1   108.0100461 406.684800
   1110   1111   1113     1   108.0100461 406.684800
   1110   1114   1115     1   108.0100461 406.684800
   1110   1114   1116     1   108.0100461 406.684800
   1110   1117   1118     1   108.0100461 406.684800
   1110   1117   1119     1   108.0100461 406.684800
   1111   1110   1139     1   110.1100470 384.091200
   1111   1123   1124     1   109.8000471 387.438400
   1111   1123   1125     1   109.8000471 387.438400
   1112   1111   1123     1   110.5600475 386.601600
   1112   1111   1113     1   109.7500473 328.025600
   1113   1111   1123     1   110.5600475 386.601600
   1114   1110   1139     1   110.1100470 384.091200
   1114   1126   1127     1   109.8000471 387.438400
   1114   1126   1128     1   109.8000471 387.438400
   1115   1114   1126     1   110.5600475 386.601600
   1115   1114   1116     1   109.7500473 328.025600
   1116   1114   1126     1   110.5600475 386.601600
   1117   1110   1139     1   110.1100470 384.091200
   1117   1120   1121     1   109.8000471 387.438400
   1117   1120   1122     1   109.8000471 387.438400
   1118   1117   1120     1   110.5600475 386.601600
   1118   1117   1119     1   109.7500473 328.025600
   1119   1117   1120     1   110.5600475 386.601600
   1120   1129   1130     1   109.5600471 388.275200
   1120   1129   1131     1   109.5600471 388.275200
   1121   1120   1129     1   109.8000471 387.438400
   1121   1120   1122     1   107.5800459 329.699200
   1122   1120   1129     1   109.8000471 387.438400
   1123   1135   1136     1   109.5600471 388.275200
   1123   1135   1137     1   109.5600471 388.275200
   1124   1123   1135     1   109.8000471 387.438400
   1124   1123   1125     1   107.5800459 329.699200
   1125   1123   1135     1   109.8000471 387.438400
   1126   1132   1133     1   109.5600471 388.275200
   1126   1132   1134     1   109.5600471 388.275200
   1127   1126   1132     1   109.8000471 387.438400
   1127   1126   1128     1   107.5800459 329.699200
   1128   1126   1132     1   109.8000471 387.438400
   1130   1129   1138     1   109.7800468 425.094400
   1130   1129   1131     1   108.4600466 328.025600
   1131   1129   1138     1   109.7800468 425.094400
   1133   1132   2068     1   109.7800468 425.094400
   1133   1132   1134     1   108.4600466 328.025600
   1134   1132   2068     1   109.7800468 425.094400
   1136   1135   2082     1   109.7800468 425.094400
   1136   1135   1137     1   108.4600466 328.025600
   1137   1135   2082     1   109.7800468 425.094400
   1140   1141   1142     1   108.0100461 406.684800
   1140   1141   1143     1   108.0100461 406.684800
   1140   1144   1145     1   108.0100461 406.684800
   1140   1144   1146     1   108.0100461 406.684800
   1140   1147   1148     1   108.0100461 406.684800
   1140   1147   1149     1   108.0100461 406.684800
   1141   1140   1169     1   110.1100470 384.091200
   1141   1153   1154     1   109.8000471 387.438400
   1141   1153   1155     1   109.8000471 387.438400
   1142   1141   1153     1   110.5600475 386.601600
   1142   1141   1143     1   109.7500473 328.025600
   1143   1141   1153     1   110.5600475 386.601600
   1144   1140   1169     1   110.1100470 384.091200
   1144   1156   1157     1   109.8000471 387.438400
   1144   1156   1158     1   109.8000471 387.438400
   1145   1144   1156     1   110.5600475 386.601600
   1145   1144   1146     1   109.7500473 328.025600
   1146   1144   1156     1   110.5600475 386.601600
   1147   1140   1169     1   110.1100470 384.091200
   1147   1150   1151     1   109.8000471 387.438400
   1147   1150   1152     1   109.8000471 387.438400
   1148   1147   1150     1   110.5600475 386.601600
   1148   1147   1149     1   109.7500473 328.025600
   1149   1147   1150     1   110.5600475 386.601600
   1150   1159   1160     1   109.5600471 388.275200
   1150   1159   1161     1   109.5600471 388.275200
   1151   1150   1159     1   109.8000471 387.438400
   1151   1150   1152     1   107.5800459 329.699200
   1152   1150   1159     1   109.8000471 387.438400
   1153   1165   1166     1   109.5600471 388.275200
   1153   1165   1167     1   109.5600471 388.275200
   1154   1153   1165     1   109.8000471 387.438400
   1154   1153   1155     1   107.5800459 329.699200
   1155   1153   1165     1   109.8000471 387.438400
   1156   1162   1163     1   109.5600471 388.275200
   1156   1162   1164     1   109.5600471 388.275200
   1157   1156   1162     1   109.8000471 387.438400
   1157   1156   1158     1   107.5800459 329.699200
   1158   1156   1162     1   109.8000471 387.438400
   1160   1159   1168     1   109.7800468 425.094400
   1160   1159   1161     1   108.4600466 328.025600
   1161   1159   1168     1   109.7800468 425.094400
   1163   1162   2096     1   109.7800468 425.094400
   1163   1162   1164     1   108.4600466 328.025600
   1164   1162   2096     1   109.7800468 425.094400
   1166   1165   2110     1   109.7800468 425.094400
   1166   1165   1167     1   108.4600466 328.025600
   1167   1165   2110     1   109.7800468 425.094400
   1170   1171   1172     1   108.0100461 406.684800
   1170   1171   1173     1   108.0100461 406.684800
   1170   1174   1175     1   108.0100461 406.684800
   1170   1174   1176     1   108.0100461 406.684800
   1170   1177   1178     1   108.0100461 406.684800
   1170   1177   1179     1   108.0100461 406.684800
   1171   1170   1199     1   110.1100470 384.091200
   1171   1183   1184     1   109.8000471 387.438400
   1171   1183   1185     1   109.8000471 387.438400
   1172   1171   1183     1   110.5600475 386.601600
   1172   1171   1173     1   109.7500473 328.025600
   1173   1171   1183     1   110.5600475 386.601600
   1174   1170   1199     1   110.1100470 384.091200
   1174   1186   1187     1   109.8000471 387.438400
   1174   1186   1188     1   109.8000471 387.438400
   1175   1174   1186     1   110.5600475 386.601600
   1175   1174   1176     1   109.7500473 328.025600
   1176   1174   1186     1   110.5600475 386.601600
   1177   1170   1199     1   110.1100470 384.091200
   1177   1180   1181     1   109.8000471 387.438400
   1177   1180   1182     1   109.8000471 387.438400
   1178   1177   1180     1   110.5600475 386.601600
   1178   1177   1179     1   109.7500473 328.025600
   1179   1177   1180     1   110.5600475 386.601600
   1180   1189   1190     1   109.5600471 388.275200
   1180   1189   1191     1   109.5600471 388.275200
   1181   1180   1189     1   109.8000471 387.438400
   1181   1180   1182     1   107.5800459 329.699200
   1182   1180   1189     1   109.8000471 387.438400
   1183   1195   1196     1   109.5600471 388.275200
   1183   1195   1197     1   109.5600471 388.275200
   1184   1183   1195     1   109.8000471 387.438400
   1184   1183   1185     1   107.5800459 329.699200
   1185   1183   1195     1   109.8000471 387.438400
   1186   1192   1193     1   109.5600471 388.275200
   1186   1192   1194     1   109.5600471 388.275200
   1187   1186   1192     1   109.8000471 387.438400
   1187   1186   1188     1   107.5800459 329.699200
   1188   1186   1192     1   109.8000471 387.438400
   1190   1189   1198     1   109.7800468 425.094400
   1190   1189   1191     1   108.4600466 328.025600
   1191   1189   1198     1   109.7800468 425.094400
   1193   1192   2124     1   109.7800468 425.094400
   1193   1192   1194     1   108.4600466 328.025600
   1194   1192   2124     1   109.7800468 425.094400
   1196   1195   2138     1   109.7800468 425.094400
   1196   1195   1197     1   108.4600466 328.025600
   1197   1195   2138     1   109.7800468 425.094400
   1200   1201   1202     1   108.0100461 406.684800
   1200   1201   1203     1   108.0100461 406.684800
   1200   1204   1205     1   108.0100461 406.684800
   1200   1204   1206     1   108.0100461 406.684800
   1200   1207   1208     1   108.0100461 406.684800
   1200   1207   1209     1   108.0100461 406.684800
   1201   1200   1229     1   110.1100470 384.091200
   1201   1213   1214     1   109.8000471 387.438400
   1201   1213   1215     1   109.8000471 387.438400
   1202   1201   1213     1   110.5600475 386.601600
   1202   1201   1203     1   109.7500473 328.025600
   1203   1201   1213     1   110.5600475 386.601600
   1204   1200   1229     1   110.1100470 384.091200
   1204   1216   1217     1   109.8000471 387.438400
   1204   1216   1218     1   109.8000471 387.438400
   1205   1204   1216     1   110.5600475 386.601600
   1205   1204   1206     1   109.7500473 328.025600
   1206   1204   1216     1   110.5600475 386.601600
   1207   1200   1229     1   110.1100470 384.091200
   1207   1210   1211     1   109.8000471 387.438400
   1207   1210   1212     1   109.8000471 387.438400
   1208   1207   1210     1   110.5600475 386.601600
   1208   1207   1209     1   109.7500473 328.025600
   1209   1207   1210     1   110.5600475 386.601600
   1210   1219   1220     1   109.5600471 388.275200
   1210   1219   1221     1   109.5600471 388.275200
   1211   1210   1219     1   109.8000471 387.438400
   1211   1210   1212     1   107.5800459 329.699200
   1212   1210   1219     1   109.8000471 387.438400
   1213   1225   1226     1   109.5600471 388.275200
   1213   1225   1227     1   109.5600471 388.275200
   1214   1213   1225     1   109.8000471 387.438400
   1214   1213   1215     1   107.5800459 329.699200
   1215   1213   1225     1   109.8000471 387.438400
   1216   1222   1223     1   109.5600471 388.275200
   1216   1222   1224     1   109.5600471 388.275200
   1217   1216   1222     1   109.8000471 387.438400
   1217   1216   1218     1   107.5800459 329.699200
   1218   1216   1222     1   109.8000471 387.438400
   1220   1219   1228     1   109.7800468 425.094400
   1220   1219   1221     1   108.4600466 328.025600
   1221   1219   1228     1   109.7800468 425.094400
   1223   1222   2152     1   109.7800468 425.094400
   1223   1222   1224     1   108.4600466 328.025600
   1224   1222   2152     1   109.7800468 425.094400
   1226   1225   2166     1   109.7800468 425.094400
   1226   1225   1227     1   108.4600466 328.025600
   1227   1225   2166     1   109.7800468 425.094400
   1230   1231   1232     1   108.0100461 406.684800
   1230   1231   1233     1   108.0100461 406.684800
   1230   1234   1235     1   108.0100461 406.684800
   1230   1234   1236     1   108.0100461 406.684800
   1230   1237   1238     1   108.0100461 406.684800
   1230   1237   1239     1   108.0100461 406.684800
   1231   1230   1259     1   110.1100470 384.091200
   1231   1243   1244     1   109.8000471 387.438400
   1231   1243   1245     1   109.8000471 387.438400
   1232   1231   1243     1   110.5600475 386.601600
   1232   1231   1233     1   109.7500473 328.025600
   1233   1231   1243     1   110.5600475 386.601600
   1234   1230   1259     1   110.1100470 384.091200
   1234   1246   1247     1   109.8000471 387.438400
   1234   1246   1248     1   109.8000471 387.438400
   1235   1234   1246     1   110.5600475 386.601600
   1235   1234   1236     1   109.7500473 328.025600
   1236   1234   1246     1   110.5600475 386.601600
   1237   1230   1259     1   110.1100470 384.091200
   1237   1240   1241     1   109.8000471 387.438400
   1237   1240   1242     1   109.8000471 387.438400
   1238   1237   1240     1   110.5600475 386.601600
   1238   1237   1239     1   109.7500473 328.025600
   1239   1237   1240     1   110.5600475 386.601600
   1240   1249   1250     1   109.5600471 388.275200
   1240   1249   1251     1   109.5600471 388.275200
   1241   1240   1249     1   109.8000471 387.438400
   1241   1240   1242     1   107.5800459 329.699200
   1242   1240   1249     1   109.8000471 387.438400
   1243   1255   1256     1   109.5600471 388.275200
   1243   1255   1257     1   109.5600471 388.275200
   1244   1243   1255     1   109.8000471 387.438400
   1244   1243   1245     1   107.5800459 329.699200
   1245   1243   1255     1   109.8000471 387.438400
   1246   1252   1253     1   109.5600471 388.275200
   1246   1252   1254     1   109.5600471 388.275200
   1247   1246   1252     1   109.8000471 387.438400
   1247   1246   1248     1   107.5800459 329.699200
   1248   1246   1252     1   109.8000471 387.438400
   1250   1249   1258     1   109.7800468 425.094400
   1250   1249   1251     1   108.4600466 328.025600
   1251   1249   1258     1   109.7800468 425.094400
   1253   1252   2180     1   109.7800468 425.094400
   1253   1252   1254     1   108.4600466 328.025600
   1254   1252   2180     1   109.7800468 425.094400
   1256   1255   2194     1   109.7800468 425.094400
   1256   1255   1257     1   108.4600466 328.025600
   1257   1255   2194     1   109.7800468 425.094400
   1260   1261   1262     1   108.0100461 406.684800
   1260   1261   1263     1   108.0100461 406.684800
   1260   1264   1265     1   108.0100461 406.684800
   1260   1264   1266     1   108.0100461 406.684800
   1260   1267   1268     1   108.0100461 406.684800
   1260   1267   1269     1   108.0100461 406.684800
   1261   1260   1289     1   110.1100470 384.091200
   1261   1273   1274     1   109.8000471 387.438400
   1261   1273   1275     1   109.8000471 387.438400
   1262   1261   1273     1   110.5600475 386.601600
   1262   1261   1263     1   109.7500473 328.025600
   1263   1261   1273     1   110.5600475 386.601600
   1264   1260   1289     1   110.1100470 384.091200
   1264   1276   1277     1   109.8000471 387.438400
   1264   1276   1278     1   109.8000471 387.438400
   1265   1264   1276     1   110.5600475 386.601600
   1265   1264   1266     1   109.7500473 328.025600
   1266   1264   1276     1   110.5600475 386.601600
   1267   1260   1289     1   110.1100470 384.091200
   1267   1270   1271     1   109.8000471 387.438400
   1267   1270   1272     1   109.8000471 387.438400
   1268   1267   1270     1   110.5600475 386.601600
   1268   1267   1269     1   109.7500473 328.025600
   1269   1267   1270     1   110.5600475 386.601600
   1270   1279   1280     1   109.5600471 388.275200
   1270   1279   1281     1   109.5600471 388.275200
   1271   1270   1279     1   109.8000471 387.438400
   1271   1270   1272     1   107.5800459 329.699200
   1272   1270   1279     1   109.8000471 387.438400
   1273   1285   1286     1   109.5600471 388.275200
   1273   1285   1287     1   109.5600471 388.275200
   1274   1273   1285     1   109.8000471 387.438400
   1274   1273   1275     1   107.5800459 329.699200
   1275   1273   1285     1   109.8000471 387.438400
   1276   1282   1283     1   109.5600471 388.275200
   1276   1282   1284     1   109.5600471 388.275200
   1277   1276   1282     1   109.8000471 387.438400
   1277   1276   1278     1   107.5800459 329.699200
   1278   1276   1282     1   109.8000471 387.438400
   1280   1279   1288     1   109.7800468 425.094400
   1280   1279   1281     1   108.4600466 328.025600
   1281   1279   1288     1   109.7800468 425.094400
   1283   1282   2208     1   109.7800468 425.094400
   1283   1282   1284     1   108.4600466 328.025600
   1284   1282   2208     1   109.7800468 425.094400
   1286   1285   2222     1   109.7800468 425.094400
   1286   1285   1287     1   108.4600466 328.025600
   1287   1285   2222     1   109.7800468 425.094400
   1290   1291   1292     1   108.0100461 406.684800
   1290   1291   1293     1   108.0100461 406.684800
   1290   1294   1295     1   108.0100461 406.684800
   1290   1294   1296     1   108.0100461 406.684800
   1290   1297   1298     1   108.0100461 406.684800
   1290   1297   1299     1   108.0100461 406.684800
   1291   1290   1319     1   110.1100470 384.091200
   1291   1303   1304     1   109.8000471 387.438400
   1291   1303   1305     1   109.8000471 387.438400
   1292   1291   1303     1   110.5600475 386.601600
   1292   1291   1293     1   109.7500473 328.025600
   1293   1291   1303     1   110.5600475 386.601600
   1294   1290   1319     1   110.1100470 384.091200
   1294   1306   1307     1   109.8000471 387.438400
   1294   1306   1308     1   109.8000471 387.438400
   1295   1294   1306     1   110.5600475 386.601600
   1295   1294   1296     1   109.7500473 328.025600
   1296   1294   1306     1   110.5600475 386.601600
   1297   1290   1319     1   110.1100470 384.091200
   1297   1300   1301     1   109.8000471 387.438400
   1297   1300   1302     1   109.8000471 387.438400
   1298   1297   1300     1   110.5600475 386.601600
   1298   1297   1299     1   109.7500473 328.025600
   1299   1297   1300     1   110.5600475 386.601600
   1300   1309   1310     1   109.5600471 388.275200
   1300   1309   1311     1   109.5600471 388.275200
   1301   1300   1309     1   109.8000471 387.438400
   1301   1300   1302     1   107.5800459 329.699200
   1302   1300   1309     1   109.8000471 387.438400
   1303   1315   1316     1   109.5600471 388.275200
   1303   1315   1317     1   109.5600471 388.275200
   1304   1303   1315     1   109.8000471 387.438400
   1304   1303   1305     1   107.5800459 329.699200
   1305   1303   1315     1   109.8000471 387.438400
   1306   1312   1313     1   109.5600471 388.275200
   1306   1312   1314     1   109.5600471 388.275200
   1307   1306   1312     1   109.8000471 387.438400
   1307   1306   1308     1   107.5800459 329.699200
   1308   1306   1312     1   109.8000471 387.438400
   1310   1309   1318     1   109.7800468 425.094400
   1310   1309   1311     1   108.4600466 328.025600
   1311   1309   1318     1   109.7800468 425.094400
   1313   1312   2236     1   109.7800468 425.094400
   1313   1312   1314     1   108.4600466 328.025600
   1314   1312   2236     1   109.7800468 425.094400
   1316   1315   2250     1   109.7800468 425.094400
   1316   1315   1317     1   108.4600466 328.025600
   1317   1315   2250     1   109.7800468 425.094400
   1320   1321   1322     1   108.0100461 406.684800
   1320   1321   1323     1   108.0100461 406.684800
   1320   1324   1325     1   108.0100461 406.684800
   1320   1324   1326     1   108.0100461 406.684800
   1320   1327   1328     1   108.0100461 406.684800
   1320   1327   1329     1   108.0100461 406.684800
   1321   1320   1349     1   110.1100470 384.091200
   1321   1333   1334     1   109.8000471 387.438400
   1321   1333   1335     1   109.8000471 387.438400
   1322   1321   1333     1   110.5600475 386.601600
   1322   1321   1323     1   109.7500473 328.025600
   1323   1321   1333     1   110.5600475 386.601600
   1324   1320   1349     1   110.1100470 384.091200
   1324   1336   1337     1   109.8000471 387.438400
   1324   1336   1338     1   109.8000471 387.438400
   1325   1324   1336     1   110.5600475 386.601600
   1325   1324   1326     1   109.7500473 328.025600
   1326   1324   1336     1   110.5600475 386.601600
   1327   1320   1349     1   110.1100470 384.091200
   1327   1330   1331     1   109.8000471 387.438400
   1327   1330   1332     1   109.8000471 387.438400
   1328   1327   1330     1   110.5600475 386.601600
   1328   1327   1329     1   109.7500473 328.025600
   1329   1327   1330     1   110.5600475 386.601600
   1330   1339   1340     1   109.5600471 388.275200
   1330   1339   1341     1   109.5600471 388.275200
   1331   1330   1339     1   109.8000471 387.438400
   1331   1330   1332     1   107.5800459 329.699200
   1332   1330   1339     1   109.8000471 387.438400
   1333   1345   1346     1   109.5600471 388.275200
   1333   1345   1347     1   109.5600471 388.275200
   1334   1333   1345     1   109.8000471 387.438400
   1334   1333   1335     1   107.5800459 329.699200
   1335   1333   1345     1   109.8000471 387.438400
   1336   1342   1343     1   109.5600471 388.275200
   1336   1342   1344     1   109.5600471 388.275200
   1337   1336   1342     1   109.8000471 387.438400
   1337   1336   1338     1   107.5800459 329.699200
   1338   1336   1342     1   109.8000471 387.438400
   1340   1339   1348     1   109.7800468 425.094400
   1340   1339   1341     1   108.4600466 328.025600
   1341   1339   1348     1   109.7800468 425.094400
   1343   1342   2264     1   109.7800468 425.094400
   1343   1342   1344     1   108.4600466 328.025600
   1344   1342   2264     1   109.7800468 425.094400
   1346   1345   2278     1   109.7800468 425.094400
   1346   1345   1347     1   108.4600466 328.025600
   1347   1345   2278     1   109.7800468 425.094400
   1350   1351   1352     1   108.0100461 406.684800
   1350   1351   1353     1   108.0100461 406.684800
   1350   1354   1355     1   108.0100461 406.684800
   1350   1354   1356     1   108.0100461 406.684800
   1350   1357   1358     1   108.0100461 406.684800
   1350   1357   1359     1   108.0100461 406.684800
   1351   1350   1379     1   110.1100470 384.091200
   1351   1363   1364     1   109.8000471 387.438400
   1351   1363   1365     1   109.8000471 387.438400
   1352   1351   1363     1   110.5600475 386.601600
   1352   1351   1353     1   109.7500473 328.025600
   1353   1351   1363     1   110.5600475 386.601600
   1354   1350   1379     1   110.1100470 384.091200
   1354   1366   1367     1   109.8000471 387.438400
   1354   1366   1368     1   109.8000471 387.438400
   1355   1354   1366     1   110.5600475 386.601600
   1355   1354   1356     1   109.7500473 328.025600
   1356   1354   1366     1   110.5600475 386.601600
   1357   1350   1379     1   110.1100470 384.091200
   1357   1360   1361     1   109.8000471 387.438400
   1357   1360   1362     1   109.8000471 387.438400
   1358   1357   1360     1   110.5600475 386.601600
   1358   1357   1359     1   109.7500473 328.025600
   1359   1357   1360     1   110.5600475 386.601600
   1360   1369   1370     1   109.5600471 388.275200
   1360   1369   1371     1   109.5600471 388.275200
   1361   1360   1369     1   109.8000471 387.438400
   1361   1360   1362     1   107.5800459 329.699200
   1362   1360   1369     1   109.8000471 387.438400
   1363   1375   1376     1   109.5600471 388.275200
   1363   1375   1377     1   109.5600471 388.275200
   1364   1363   1375     1   109.8000471 387.438400
   1364   1363   1365     1   107.5800459 329.699200
   1365   1363   1375     1   109.8000471 387.438400
   1366   1372   1373     1   109.5600471 388.275200
   1366   1372   1374     1   109.5600471 388.275200
   1367   1366   1372     1   109.8000471 387.438400
   1367   1366   1368     1   107.5800459 329.699200
   1368   1366   1372     1   109.8000471 387.438400
   1370   1369   1378     1   109.7800468 425.094400
   1370   1369   1371     1   108.4600466 328.025600
   1371   1369   1378     1   109.7800468 425.094400
   1373   1372   2292     1   109.7800468 425.094400
   1373   1372   1374     1   108.4600466 328.025600
   1374   1372   2292     1   109.7800468 425.094400
   1376   1375   2306     1   109.7800468 425.094400
   1376   1375   1377     1   108.4600466 328.025600
   1377   1375   2306     1   109.7800468 425.094400
   1380   1381   1382     1   108.0100461 406.684800
   1380   1381   1383     1   108.0100461 406.684800
   1380   1384   1385     1   108.0100461 406.684800
   1380   1384   1386     1   108.0100461 406.684800
   1380   1387   1388     1   108.0100461 406.684800
   1380   1387   1389     1   108.0100461 406.684800
   1381   1380   1409     1   110.1100470 384.091200
   1381   1393   1394     1   109.8000471 387.438400
   1381   1393   1395     1   109.8000471 387.438400
   1382   1381   1393     1   110.5600475 386.601600
   1382   1381   1383     1   109.7500473 328.025600
   1383   1381   1393     1   110.5600475 386.601600
   1384   1380   1409     1   110.1100470 384.091200
   1384   1396   1397     1   109.8000471 387.438400
   1384   1396   1398     1   109.8000471 387.438400
   1385   1384   1396     1   110.5600475 386.601600
   1385   1384   1386     1   109.7500473 328.025600
   1386   1384   1396     1   110.5600475 386.601600
   1387   1380   1409     1   110.1100470 384.091200
   1387   1390   1391     1   109.8000471 387.438400
   1387   1390   1392     1   109.8000471 387.438400
   1388   1387   1390     1   110.5600475 386.601600
   1388   1387   1389     1   109.7500473 328.025600
   1389   1387   1390     1   110.5600475 386.601600
   1390   1399   1400     1   109.5600471 388.275200
   1390   1399   1401     1   109.5600471 388.275200
   1391   1390   1399     1   109.8000471 387.438400
   1391   1390   1392     1   107.5800459 329.699200
   1392   1390   1399     1   109.8000471 387.438400
   1393   1405   1406     1   109.5600471 388.275200
   1393   1405   1407     1   109.5600471 388.275200
   1394   1393   1405     1   109.8000471 387.438400
   1394   1393   1395     1   107.5800459 329.699200
   1395   1393   1405     1   109.8000471 387.438400
   1396   1402   1403     1   109.5600471 388.275200
   1396   1402   1404     1   109.5600471 388.275200
   1397   1396   1402     1   109.8000471 387.438400
   1397   1396   1398     1   107.5800459 329.699200
   1398   1396   1402     1   109.8000471 387.438400
   1400   1399   1408     1   109.7800468 425.094400
   1400   1399   1401     1   108.4600466 328.025600
   1401   1399   1408     1   109.7800468 425.094400
   1403   1402   2320     1   109.7800468 425.094400
   1403   1402   1404     1   108.4600466 328.025600
   1404   1402   2320     1   109.7800468 425.094400
   1406   1405   2334     1   109.7800468 425.094400
   1406   1405   1407     1   108.4600466 328.025600
   1407   1405   2334     1   109.7800468 425.094400
   1410   1411   1412     1   108.0100461 406.684800
   1410   1411   1413     1   108.0100461 406.684800
   1410   1414   1415     1   108.0100461 406.684800
   1410   1414   1416     1   108.0100461 406.684800
   1410   1417   1418     1   108.0100461 406.684800
   1410   1417   1419     1   108.0100461 406.684800
   1411   1410   1439     1   110.1100470 384.091200
   1411   1423   1424     1   109.8000471 387.438400
   1411   1423   1425     1   109.8000471 387.438400
   1412   1411   1423     1   110.5600475 386.601600
   1412   1411   1413     1   109.7500473 328.025600
   1413   1411   1423     1   110.5600475 386.601600
   1414   1410   1439     1   110.1100470 384.091200
   1414   1426   1427     1   109.8000471 387.438400
   1414   1426   1428     1   109.8000471 387.438400
   1415   1414   1426     1   110.5600475 386.601600
   1415   1414   1416     1   109.7500473 328.025600
   1416   1414   1426     1   110.5600475 386.601600
   1417   1410   1439     1   110.1100470 384.091200
   1417   1420   1421     1   109.8000471 387.438400
   1417   1420   1422     1   109.8000471 387.438400
   1418   1417   1420     1   110.5600475 386.601600
   1418   1417   1419     1   109.7500473 328.025600
   1419   1417   1420     1   110.5600475 386.601600
   1420   1429   1430     1   109.5600471 388.275200
   1420   1429   1431     1   109.5600471 388.275200
   1421   1420   1429     1   109.8000471 387.438400
   1421   1420   1422     1   107.5800459 329.699200
   1422   1420   1429     1   109.8000471 387.438400
   1423   1435   1436     1   109.5600471 388.275200
   1423   1435   1437     1   109.5600471 388.275200
   1424   1423   1435     1   109.8000471 387.438400
   1424   1423   1425     1   107.5800459 329.699200
   1425   1423   1435     1   109.8000471 387.438400
   1426   1432   1433     1   109.5600471 388.275200
   1426   1432   1434     1   109.5600471 388.275200
   1427   1426   1432     1   109.8000471 387.438400
   1427   1426   1428     1   107.5800459 329.699200
   1428   1426   1432     1   109.8000471 387.438400
   1430   1429   1438     1   109.7800468 425.094400
   1430   1429   1431     1   108.4600466 328.025600
   1431   1429   1438     1   109.7800468 425.094400
   1433   1432   2348     1   109.7800468 425.094400
   1433   1432   1434     1   108.4600466 328.025600
   1434   1432   2348     1   109.7800468 425.094400
   1436   1435   2362     1   109.7800468 425.094400
   1436   1435   1437     1   108.4600466 328.025600
   1437   1435   2362     1   109.7800468 425.094400
   1440   1441   1442     1   108.0100461 406.684800
   1440   1441   1443     1   108.0100461 406.684800
   1440   1444   1445     1   108.0100461 406.684800
   1440   1444   1446     1   108.0100461 406.684800
   1440   1447   1448     1   108.0100461 406.684800
   1440   1447   1449     1   108.0100461 406.684800
   1441   1440   1469     1   110.1100470 384.091200
   1441   1453   1454     1   109.8000471 387.438400
   1441   1453   1455     1   109.8000471 387.438400
   1442   1441   1453     1   110.5600475 386.601600
   1442   1441   1443     1   109.7500473 328.025600
   1443   1441   1453     1   110.5600475 386.601600
   1444   1440   1469     1   110.1100470 384.091200
   1444   1456   1457     1   109.8000471 387.438400
   1444   1456   1458     1   109.8000471 387.438400
   1445   1444   1456     1   110.5600475 386.601600
   1445   1444   1446     1   109.7500473 328.025600
   1446   1444   1456     1   110.5600475 386.601600
   1447   1440   1469     1   110.1100470 384.091200
   1447   1450   1451     1   109.8000471 387.438400
   1447   1450   1452     1   109.8000471 387.438400
   1448   1447   1450     1   110.5600475 386.601600
   1448   1447   1449     1   109.7500473 328.025600
   1449   1447   1450     1   110.5600475 386.601600
   1450   1459   1460     1   109.5600471 388.275200
   1450   1459   1461     1   109.5600471 388.275200
   1451   1450   1459     1   109.8000471 387.438400
   1451   1450   1452     1   107.5800459 329.699200
   1452   1450   1459     1   109.8000471 387.438400
   1453   1465   1466     1   109.5600471 388.275200
   1453   1465   1467     1   109.5600471 388.275200
   1454   1453   1465     1   109.8000471 387.438400
   1454   1453   1455     1   107.5800459 329.699200
   1455   1453   1465     1   109.8000471 387.438400
   1456   1462   1463     1   109.5600471 388.275200
   1456   1462   1464     1   109.5600471 388.275200
   1457   1456   1462     1   109.8000471 387.438400
   1457   1456   1458     1   107.5800459 329.699200
   1458   1456   1462     1   109.8000471 387.438400
   1460   1459   1468     1   109.7800468 425.094400
   1460   1459   1461     1   108.4600466 328.025600
   1461   1459   1468     1   109.7800468 425.094400
   1463   1462   2376     1   109.7800468 425.094400
   1463   1462   1464     1   108.4600466 328.025600
   1464   1462   2376     1   109.7800468 425.094400
   1466   1465   2390     1   109.7800468 425.094400
   1466   1465   1467     1   108.4600466 328.025600
   1467   1465   2390     1   109.7800468 425.094400
   1470   1471   1472     1   108.0100461 406.684800
   1470   1471   1473     1   108.0100461 406.684800
   1470   1474   1475     1   108.0100461 406.684800
   1470   1474   1476     1   108.0100461 406.684800
   1470   1477   1478     1   108.0100461 406.684800
   1470   1477   1479     1   108.0100461 406.684800
   1471   1470   1499     1   110.1100470 384.091200
   1471   1483   1484     1   109.8000471 387.438400
   1471   1483   1485     1   109.8000471 387.438400
   1472   1471   1483     1   110.5600475 386.601600
   1472   1471   1473     1   109.7500473 328.025600
   1473   1471   1483     1   110.5600475 386.601600
   1474   1470   1499     1   110.1100470 384.091200
   1474   1486   1487     1   109.8000471 387.438400
   1474   1486   1488     1   109.8000471 387.438400
   1475   1474   1486     1   110.5600475 386.601600
   1475   1474   1476     1   109.7500473 328.025600
   1476   1474   1486     1   110.5600475 386.601600
   1477   1470   1499     1   110.1100470 384.091200
   1477   1480   1481     1   109.8000471 387.438400
   1477   1480   1482     1   109.8000471 387.438400
   1478   1477   1480     1   110.5600475 386.601600
   1478   1477   1479     1   109.7500473 328.025600
   1479   1477   1480     1   110.5600475 386.601600
   1480   1489   1490     1   109.5600471 388.275200
   1480   1489   1491     1   109.5600471 388.275200
   1481   1480   1489     1   109.8000471 387.438400
   1481   1480   1482     1   107.5800459 329.699200
   1482   1480   1489     1   109.8000471 387.438400
   1483   1495   1496     1   109.5600471 388.275200
   1483   1495   1497     1   109.5600471 388.275200
   1484   1483   1495     1   109.8000471 387.438400
   1484   1483   1485     1   107.5800459 329.699200
   1485   1483   1495     1   109.8000471 387.438400
   1486   1492   1493     1   109.5600471 388.275200
   1486   1492   1494     1   109.5600471 388.275200
   1487   1486   1492     1   109.8000471 387.438400
   1487   1486   1488     1   107.5800459 329.699200
   1488   1486   1492     1   109.8000471 387.438400
   1490   1489   1498     1   109.7800468 425.094400
   1490   1489   1491     1   108.4600466 328.025600
   1491   1489   1498     1   109.7800468 425.094400
   1493   1492   2404     1   109.7800468 425.094400
   1493   1492   1494     1   108.4600466 328.025600
   1494   1492   2404     1   109.7800468 425.094400
   1496   1495   2418     1   109.7800468 425.094400
   1496   1495   1497     1   108.4600466 328.025600
   1497   1495   2418     1   109.7800468 425.094400
   1500   1501   1502     1   108.0100461 406.684800
   1500   1501   1503     1   108.0100461 406.684800
   1500   1504   1505     1   108.0100461 406.684800
   1500   1504   1506     1   108.0100461 406.684800
   1500   1507   1508     1   108.0100461 406.684800
   1500   1507   1509     1   108.0100461 406.684800
   1501   1500   1529     1   110.1100470 384.091200
   1501   1513   1514     1   109.8000471 387.438400
   1501   1513   1515     1   109.8000471 387.438400
   1502   1501   1513     1   110.5600475 386.601600
   1502   1501   1503     1   109.7500473 328.025600
   1503   1501   1513     1   110.5600475 386.601600
   1504   1500   1529     1   110.1100470 384.091200
   1504   1516   1517     1   109.8000471 387.438400
   1504   1516   1518     1   109.8000471 387.438400
   1505   1504   1516     1   110.5600475 386.601600
   1505   1504   1506     1   109.7500473 328.025600
   1506   1504   1516     1   110.5600475 386.601600
   1507   1500   1529     1   110.1100470 384.091200
   1507   1510   1511     1   109.8000471 387.438400
   1507   1510   1512     1   109.8000471 387.438400
   1508   1507   1510     1   110.5600475 386.601600
   1508   1507   1509     1   109.7500473 328.025600
   1509   1507   1510     1   110.5600475 386.601600
   1510   1519   1520     1   109.5600471 388.275200
   1510   1519   1521     1   109.5600471 388.275200
   1511   1510   1519     1   109.8000471 387.438400
   1511   1510   1512     1   107.5800459 329.699200
   1512   1510   1519     1   109.8000471 387.438400
   1513   1525   1526     1   109.5600471 388.275200
   1513   1525   1527     1   109.5600471 388.275200
   1514   1513   1525     1   109.8000471 387.438400
   1514   1513   1515     1   107.5800459 329.699200
   1515   1513   1525     1   109.8000471 387.438400
   1516   1522   1523     1   109.5600471 388.275200
   1516   1522   1524     1   109.5600471 388.275200
   1517   1516   1522     1   109.8000471 387.438400
   1517   1516   1518     1   107.5800459 329.699200
   1518   1516   1522     1   109.8000471 387.438400
   1520   1519   1528     1   109.7800468 425.094400
   1520   1519   1521     1   108.4600466 328.025600
   1521   1519   1528     1   109.7800468 425.094400
   1523   1522   2432     1   109.7800468 425.094400
   1523   1522   1524     1   108.4600466 328.025600
   1524   1522   2432     1   109.7800468 425.094400
   1526   1525   2446     1   109.7800468 425.094400
   1526   1525   1527     1   108.4600466 328.025600
   1527   1525   2446     1   109.7800468 425.094400
   1530   1531   1532     1   108.0100461 406.684800
   1530   1531   1533     1   108.0100461 406.684800
   1530   1534   1535     1   108.0100461 406.684800
   1530   1534   1536     1   108.0100461 406.684800
   1530   1537   1538     1   108.0100461 406.684800
   1530   1537   1539     1   108.0100461 406.684800
   1531   1530   1559     1   110.1100470 384.091200
   1531   1543   1544     1   109.8000471 387.438400
   1531   1543   1545     1   109.8000471 387.438400
   1532   1531   1543     1   110.5600475 386.601600
   1532   1531   1533     1   109.7500473 328.025600
   1533   1531   1543     1   110.5600475 386.601600
   1534   1530   1559     1   110.1100470 384.091200
   1534   1546   1547     1   109.8000471 387.438400
   1534   1546   1548     1   109.8000471 387.438400
   1535   1534   1546     1   110.5600475 386.601600
   1535   1534   1536     1   109.7500473 328.025600
   1536   1534   1546     1   110.5600475 386.601600
   1537   1530   1559     1   110.1100470 384.091200
   1537   1540   1541     1   109.8000471 387.438400
   1537   1540   1542     1   109.8000471 387.438400
   1538   1537   1540     1   110.5600475 386.601600
   1538   1537   1539     1   109.7500473 328.025600
   1539   1537   1540     1   110.5600475 386.601600
   1540   1549   1550     1   109.5600471 388.275200
   1540   1549   1551     1   109.5600471 388.275200
   1541   1540   1549     1   109.8000471 387.438400
   1541   1540   1542     1   107.5800459 329.699200
   1542   1540   1549     1   109.8000471 387.438400
   1543   1555   1556     1   109.5600471 388.275200
   1543   1555   1557     1   109.5600471 388.275200
   1544   1543   1555     1   109.8000471 387.438400
   1544   1543   1545     1   107.5800459 329.699200
   1545   1543   1555     1   109.8000471 387.438400
   1546   1552   1553     1   109.5600471 388.275200
   1546   1552   1554     1   109.5600471 388.275200
   1547   1546   1552     1   109.8000471 387.438400
   1547   1546   1548     1   107.5800459 329.699200
   1548   1546   1552     1   109.8000471 387.438400
   1550   1549   1558     1   109.7800468 425.094400
   1550   1549   1551     1   108.4600466 328.025600
   1551   1549   1558     1   109.7800468 425.094400
   1553   1552   2460     1   109.7800468 425.094400
   1553   1552   1554     1   108.4600466 328.025600
   1554   1552   2460     1   109.7800468 425.094400
   1556   1555   2474     1   109.7800468 425.094400
   1556   1555   1557     1   108.4600466 328.025600
   1557   1555   2474     1   109.7800468 425.094400
   1560   1561   1562     1   108.0100461 406.684800
   1560   1561   1563     1   108.0100461 406.684800
   1560   1564   1565     1   108.0100461 406.684800
   1560   1564   1566     1   108.0100461 406.684800
   1560   1567   1568     1   108.0100461 406.684800
   1560   1567   1569     1   108.0100461 406.684800
   1561   1560   1589     1   110.1100470 384.091200
   1561   1573   1574     1   109.8000471 387.438400
   1561   1573   1575     1   109.8000471 387.438400
   1562   1561   1573     1   110.5600475 386.601600
   1562   1561   1563     1   109.7500473 328.025600
   1563   1561   1573     1   110.5600475 386.601600
   1564   1560   1589     1   110.1100470 384.091200
   1564   1576   1577     1   109.8000471 387.438400
   1564   1576   1578     1   109.8000471 387.438400
   1565   1564   1576     1   110.5600475 386.601600
   1565   1564   1566     1   109.7500473 328.025600
   1566   1564   1576     1   110.5600475 386.601600
   1567   1560   1589     1   110.1100470 384.091200
   1567   1570   1571     1   109.8000471 387.438400
   1567   1570   1572     1   109.8000471 387.438400
   1568   1567   1570     1   110.5600475 386.601600
   1568   1567   1569     1   109.7500473 328.025600
   1569   1567   1570     1   110.5600475 386.601600
   1570   1579   1580     1   109.5600471 388.275200
   1570   1579   1581     1   109.5600471 388.275200
   1571   1570   1579     1   109.8000471 387.438400
   1571   1570   1572     1   107.5800459 329.699200
   1572   1570   1579     1   109.8000471 387.438400
   1573   1585   1586     1   109.5600471 388.275200
   1573   1585   1587     1   109.5600471 388.275200
   1574   1573   1585     1   109.8000471 387.438400
   1574   1573   1575     1   107.5800459 329.699200
   1575   1573   1585     1   109.8000471 387.438400
   1576   1582   1583     1   109.5600471 388.275200
   1576   1582   1584     1   109.5600471 388.275200
   1577   1576   1582     1   109.8000471 387.438400
   1577   1576   1578     1   107.5800459 329.699200
   1578   1576   1582     1   109.8000471 387.438400
   1580   1579   1588     1   109.7800468 425.094400
   1580   1579   1581     1   108.4600466 328.025600
   1581   1579   1588     1   109.7800468 425.094400
   1583   1582   2488     1   109.7800468 425.094400
   1583   1582   1584     1   108.4600466 328.025600
   1584   1582   2488     1   109.7800468 425.094400
   1586   1585   2502     1   109.7800468 425.094400
   1586   1585   1587     1   108.4600466 328.025600
   1587   1585   2502     1   109.7800468 425.094400
   1590   1591   1592     1   108.0100461 406.684800
   1590   1591   1593     1   108.0100461 406.684800
   1590   1594   1595     1   108.0100461 406.684800
   1590   1594   1596     1   108.0100461 406.684800
   1590   1597   1598     1   108.0100461 406.684800
   1590   1597   1599     1   108.0100461 406.684800
   1591   1590   1619     1   110.1100470 384.091200
   1591   1603   1604     1   109.8000471 387.438400
   1591   1603   1605     1   109.8000471 387.438400
   1592   1591   1603     1   110.5600475 386.601600
   1592   1591   1593     1   109.7500473 328.025600
   1593   1591   1603     1   110.5600475 386.601600
   1594   1590   1619     1   110.1100470 384.091200
   1594   1606   1607     1   109.8000471 387.438400
   1594   1606   1608     1   109.8000471 387.438400
   1595   1594   1606     1   110.5600475 386.601600
   1595   1594   1596     1   109.7500473 328.025600
   1596   1594   1606     1   110.5600475 386.601600
   1597   1590   1619     1   110.1100470 384.091200
   1597   1600   1601     1   109.8000471 387.438400
   1597   1600   1602     1   109.8000471 387.438400
   1598   1597   1600     1   110.5600475 386.601600
   1598   1597   1599     1   109.7500473 328.025600
   1599   1597   1600     1   110.5600475 386.601600
   1600   1609   1610     1   109.5600471 388.275200
   1600   1609   1611     1   109.5600471 388.275200
   1601   1600   1609     1   109.8000471 387.438400
   1601   1600   1602     1   107.5800459 329.699200
   1602   1600   1609     1   109.8000471 387.438400
   1603   1615   1616     1   109.5600471 388.275200
   1603   1615   1617     1   109.5600471 388.275200
   1604   1603   1615     1   109.8000471 387.438400
   1604   1603   1605     1   107.5800459 329.699200
   1605   1603   1615     1   109.8000471 387.438400
   1606   1612   1613     1   109.5600471 388.275200
   1606   1612   1614     1   109.5600471 388.275200
   1607   1606   1612     1   109.8000471 387.438400
   1607   1606   1608     1   107.5800459 329.699200
   1608   1606   1612     1   109.8000471 387.438400
   1610   1609   1618     1   109.7800468 425.094400
   1610   1609   1611     1   108.4600466 328.025600
   1611   1609   1618     1   109.7800468 425.094400
   1613   1612   2516     1   109.7800468 425.094400
   1613   1612   1614     1   108.4600466 328.025600
   1614   1612   2516     1   109.7800468 425.094400
   1616   1615   2530     1   109.7800468 425.094400
   1616   1615   1617     1   108.4600466 328.025600
   1617   1615   2530     1   109.7800468 425.094400
   1620   1621   1622     1   108.0100461 406.684800
   1620   1621   1623     1   108.0100461 406.684800
   1620   1624   1625     1   108.0100461 406.684800
   1620   1624   1626     1   108.0100461 406.684800
   1620   1627   1628     1   108.0100461 406.684800
   1620   1627   1629     1   108.0100461 406.684800
   1621   1620   1649     1   110.1100470 384.091200
   1621   1633   1634     1   109.8000471 387.438400
   1621   1633   1635     1   109.8000471 387.438400
   1622   1621   1633     1   110.5600475 386.601600
   1622   1621   1623     1   109.7500473 328.025600
   1623   1621   1633     1   110.5600475 386.601600
   1624   1620   1649     1   110.1100470 384.091200
   1624   1636   1637     1   109.8000471 387.438400
   1624   1636   1638     1   109.8000471 387.438400
   1625   1624   1636     1   110.5600475 386.601600
   1625   1624   1626     1   109.7500473 328.025600
   1626   1624   1636     1   110.5600475 386.601600
   1627   1620   1649     1   110.1100470 384.091200
   1627   1630   1631     1   109.8000471 387.438400
   1627   1630   1632     1   109.8000471 387.438400
   1628   1627   1630     1   110.5600475 386.601600
   1628   1627   1629     1   109.7500473 328.025600
   1629   1627   1630     1   110.5600475 386.601600
   1630   1639   1640     1   109.5600471 388.275200
   1630   1639   1641     1   109.5600471 388.275200
   1631   1630   1639     1   109.8000471 387.438400
   1631   1630   1632     1   107.5800459 329.699200
   1632   1630   1639     1   109.8000471 387.438400
   1633   1645   1646     1   109.5600471 388.275200
   1633   1645   1647     1   109.5600471 388.275200
   1634   1633   1645     1   109.8000471 387.438400
   1634   1633   1635     1   107.5800459 329.699200
   1635   1633   1645     1   109.8000471 387.438400
   1636   1642   1643     1   109.5600471 388.275200
   1636   1642   1644     1   109.5600471 388.275200
   1637   1636   1642     1   109.8000471 387.438400
   1637   1636   1638     1   107.5800459 329.699200
   1638   1636   1642     1   109.8000471 387.438400
   1640   1639   1648     1   109.7800468 425.094400
   1640   1639   1641     1   108.4600466 328.025600
   1641   1639   1648     1   109.7800468 425.094400
   1643   1642   2544     1   109.7800468 425.094400
   1643   1642   1644     1   108.4600466 328.025600
   1644   1642   2544     1   109.7800468 425.094400
   1646   1645   2558     1   109.7800468 425.094400
   1646   1645   1647     1   108.4600466 328.025600
   1647   1645   2558     1   109.7800468 425.094400
   1650   1651   1652     1   108.0100461 406.684800
   1650   1651   1653     1   108.0100461 406.684800
   1650   1654   1655     1   108.0100461 406.684800
   1650   1654   1656     1   108.0100461 406.684800
   1650   1657   1658     1   108.0100461 406.684800
   1650   1657   1659     1   108.0100461 406.684800
   1651   1650   1679     1   110.1100470 384.091200
   1651   1663   1664     1   109.8000471 387.438400
   1651   1663   1665     1   109.8000471 387.438400
   1652   1651   1663     1   110.5600475 386.601600
   1652   1651   1653     1   109.7500473 328.025600
   1653   1651   1663     1   110.5600475 386.601600
   1654   1650   1679     1   110.1100470 384.091200
   1654   1666   1667     1   109.8000471 387.438400
   1654   1666   1668     1   109.8000471 387.438400
   1655   1654   1666     1   110.5600475 386.601600
   1655   1654   1656     1   109.7500473 328.025600
   1656   1654   1666     1   110.5600475 386.601600
   1657   1650   1679     1   110.1100470 384.091200
   1657   1660   1661     1   109.8000471 387.438400
   1657   1660   1662     1   109.8000471 387.438400
   1658   1657   1660     1   110.5600475 386.601600
   1658   1657   1659     1   109.7500473 328.025600
   1659   1657   1660     1   110.5600475 386.601600
   1660   1669   1670     1   109.5600471 388.275200
   1660   1669   1671     1   109.5600471 388.275200
   1661   1660   1669     1   109.8000471 387.438400
   1661   1660   1662     1   107.5800459 329.699200
   1662   1660   1669     1   109.8000471 387.438400
   1663   1675   1676     1   109.5600471 388.275200
   1663   1675   1677     1   109.5600471 388.275200
   1664   1663   1675     1   109.8000471 387.438400
   1664   1663   1665     1   107.5800459 329.699200
   1665   1663   1675     1   109.8000471 387.438400
   1666   1672   1673     1   109.5600471 388.275200
   1666   1672   1674     1   109.5600471 388.275200
   1667   1666   1672     1   109.8000471 387.438400
   1667   1666   1668     1   107.5800459 329.699200
   1668   1666   1672     1   109.8000471 387.438400
   1670   1669   1678     1   109.7800468 425.094400
   1670   1669   1671     1   108.4600466 328.025600
   1671   1669   1678     1   109.7800468 425.094400
   1673   1672   2572     1   109.7800468 425.094400
   1673   1672   1674     1   108.4600466 328.025600
   1674   1672   2572     1   109.7800468 425.094400
   1676   1675   2586     1   109.7800468 425.094400
   1676   1675   1677     1   108.4600466 328.025600
   1677   1675   2586     1   109.7800468 425.094400
   1680   1681   1682     1   108.0100461 406.684800
   1680   1681   1683     1   108.0100461 406.684800
   1680   1684   1685     1   108.0100461 406.684800
   1680   1684   1686     1   108.0100461 406.684800
   1680   1687   1688     1   108.0100461 406.684800
   1680   1687   1689     1   108.0100461 406.684800
   1681   1680   1709     1   110.1100470 384.091200
   1681   1693   1694     1   109.8000471 387.438400
   1681   1693   1695     1   109.8000471 387.438400
   1682   1681   1693     1   110.5600475 386.601600
   1682   1681   1683     1   109.7500473 328.025600
   1683   1681   1693     1   110.5600475 386.601600
   1684   1680   1709     1   110.1100470 384.091200
   1684   1696   1697     1   109.8000471 387.438400
   1684   1696   1698     1   109.8000471 387.438400
   1685   1684   1696     1   110.5600475 386.601600
   1685   1684   1686     1   109.7500473 328.025600
   1686   1684   1696     1   110.5600475 386.601600
   1687   1680   1709     1   110.1100470 384.091200
   1687   1690   1691     1   109.8000471 387.438400
   1687   1690   1692     1   109.8000471 387.438400
   1688   1687   1690     1   110.5600475 386.601600
   1688   1687   1689     1   109.7500473 328.025600
   1689   1687   1690     1   110.5600475 386.601600
   1690   1699   1700     1   109.5600471 388.275200
   1690   1699   1701     1   109.5600471 388.275200
   1691   1690   1699     1   109.8000471 387.438400
   1691   1690   1692     1   107.5800459 329.699200
   1692   1690   1699     1   109.8000471 387.438400
   1693   1705   1706     1   109.5600471 388.275200
   1693   1705   1707     1   109.5600471 388.275200
   1694   1693   1705     1   109.8000471 387.438400
   1694   1693   1695     1   107.5800459 329.699200
   1695   1693   1705     1   109.8000471 387.438400
   1696   1702   1703     1   109.5600471 388.275200
   1696   1702   1704     1   109.5600471 388.275200
   1697   1696   1702     1   109.8000471 387.438400
   1697   1696   1698     1   107.5800459 329.699200
   1698   1696   1702     1   109.8000471 387.438400
   1700   1699   1708     1   109.7800468 425.094400
   1700   1699   1701     1   108.4600466 328.025600
   1701   1699   1708     1   109.7800468 425.094400
   1703   1702   2600     1   109.7800468 425.094400
   1703   1702   1704     1   108.4600466 328.025600
   1704   1702   2600     1   109.7800468 425.094400
   1706   1705   2614     1   109.7800468 425.094400
   1706   1705   1707     1   108.4600466 328.025600
   1707   1705   2614     1   109.7800468 425.094400
   1710   1711   1712     1   108.0100461 406.684800
   1710   1711   1713     1   108.0100461 406.684800
   1710   1714   1715     1   108.0100461 406.684800
   1710   1714   1716     1   108.0100461 406.684800
   1710   1717   1718     1   108.0100461 406.684800
   1710   1717   1719     1   108.0100461 406.684800
   1711   1710   1739     1   110.1100470 384.091200
   1711   1723   1724     1   109.8000471 387.438400
   1711   1723   1725     1   109.8000471 387.438400
   1712   1711   1723     1   110.5600475 386.601600
   1712   1711   1713     1   109.7500473 328.025600
   1713   1711   1723     1   110.5600475 386.601600
   1714   1710   1739     1   110.1100470 384.091200
   1714   1726   1727     1   109.8000471 387.438400
   1714   1726   1728     1   109.8000471 387.438400
   1715   1714   1726     1   110.5600475 386.601600
   1715   1714   1716     1   109.7500473 328.025600
   1716   1714   1726     1   110.5600475 386.601600
   1717   1710   1739     1   110.1100470 384.091200
   1717   1720   1721     1   109.8000471 387.438400
   1717   1720   1722     1   109.8000471 387.438400
   1718   1717   1720     1   110.5600475 386.601600
   1718   1717   1719     1   109.7500473 328.025600
   1719   1717   1720     1   110.5600475 386.601600
   1720   1729   1730     1   109.5600471 388.275200
   1720   1729   1731     1   109.5600471 388.275200
   1721   1720   1729     1   109.8000471 387.438400
   1721   1720   1722     1   107.5800459 329.699200
   1722   1720   1729     1   109.8000471 387.438400
   1723   1735   1736     1   109.5600471 388.275200
   1723   1735   1737     1   109.5600471 388.275200
   1724   1723   1735     1   109.8000471 387.438400
   1724   1723   1725     1   107.5800459 329.699200
   1725   1723   1735     1   109.8000471 387.438400
   1726   1732   1733     1   109.5600471 388.275200
   1726   1732   1734     1   109.5600471 388.275200
   1727   1726   1732     1   109.8000471 387.438400
   1727   1726   1728     1   107.5800459 329.699200
   1728   1726   1732     1   109.8000471 387.438400
   1730   1729   1738     1   109.7800468 425.094400
   1730   1729   1731     1   108.4600466 328.025600
   1731   1729   1738     1   109.7800468 425.094400
   1733   1732   2628     1   109.7800468 425.094400
   1733   1732   1734     1   108.4600466 328.025600
   1734   1732   2628     1   109.7800468 425.094400
   1736   1735   2642     1   109.7800468 425.094400
   1736   1735   1737     1   108.4600466 328.025600
   1737   1735   2642     1   109.7800468 425.094400
   1740   1741   1742     1   108.0100461 406.684800
   1740   1741   1743     1   108.0100461 406.684800
   1740   1744   1745     1   108.0100461 406.684800
   1740   1744   1746     1   108.0100461 406.684800
   1740   1747   1748     1   108.0100461 406.684800
   1740   1747   1749     1   108.0100461 406.684800
   1741   1740   1769     1   110.1100470 384.091200
   1741   1753   1754     1   109.8000471 387.438400
   1741   1753   1755     1   109.8000471 387.438400
   1742   1741   1753     1   110.5600475 386.601600
   1742   1741   1743     1   109.7500473 328.025600
   1743   1741   1753     1   110.5600475 386.601600
   1744   1740   1769     1   110.1100470 384.091200
   1744   1756   1757     1   109.8000471 387.438400
   1744   1756   1758     1   109.8000471 387.438400
   1745   1744   1756     1   110.5600475 386.601600
   1745   1744   1746     1   109.7500473 328.025600
   1746   1744   1756     1   110.5600475 386.601600
   1747   1740   1769     1   110.1100470 384.091200
   1747   1750   1751     1   109.8000471 387.438400
   1747   1750   1752     1   109.8000471 387.438400
   1748   1747   1750     1   110.5600475 386.601600
   1748   1747   1749     1   109.7500473 328.025600
   1749   1747   1750     1   110.5600475 386.601600
   1750   1759   1760     1   109.5600471 388.275200
   1750   1759   1761     1   109.5600471 388.275200
   1751   1750   1759     1   109.8000471 387.438400
   1751   1750   1752     1   107.5800459 329.699200
   1752   1750   1759     1   109.8000471 387.438400
   1753   1765   1766     1   109.5600471 388.275200
   1753   1765   1767     1   109.5600471 388.275200
   1754   1753   1765     1   109.8000471 387.438400
   1754   1753   1755     1   107.5800459 329.699200
   1755   1753   1765     1   109.8000471 387.438400
   1756   1762   1763     1   109.5600471 388.275200
   1756   1762   1764     1   109.5600471 388.275200
   1757   1756   1762     1   109.8000471 387.438400
   1757   1756   1758     1   107.5800459 329.699200
   1758   1756   1762     1   109.8000471 387.438400
   1760   1759   1768     1   109.7800468 425.094400
   1760   1759   1761     1   108.4600466 328.025600
   1761   1759   1768     1   109.7800468 425.094400
   1763   1762   2656     1   109.7800468 425.094400
   1763   1762   1764     1   108.4600466 328.025600
   1764   1762   2656     1   109.7800468 425.094400
   1766   1765   2670     1   109.7800468 425.094400
   1766   1765   1767     1   108.4600466 328.025600
   1767   1765   2670     1   109.7800468 425.094400
   1770   1771   1772     1   108.0100461 406.684800
   1770   1771   1773     1   108.0100461 406.684800
   1770   1774   1775     1   108.0100461 406.684800
   1770   1774   1776     1   108.0100461 406.684800
   1770   1777   1778     1   108.0100461 406.684800
   1770   1777   1779     1   108.0100461 406.684800
   1771   1770   1799     1   110.1100470 384.091200
   1771   1783   1784     1   109.8000471 387.438400
   1771   1783   1785     1   109.8000471 387.438400
   1772   1771   1783     1   110.5600475 386.601600
   1772   1771   1773     1   109.7500473 328.025600
   1773   1771   1783     1   110.5600475 386.601600
   1774   1770   1799     1   110.1100470 384.091200
   1774   1786   1787     1   109.8000471 387.438400
   1774   1786   1788     1   109.8000471 387.438400
   1775   1774   1786     1   110.5600475 386.601600
   1775   1774   1776     1   109.7500473 328.025600
   1776   1774   1786     1   110.5600475 386.601600
   1777   1770   1799     1   110.1100470 384.091200
   1777   1780   1781     1   109.8000471 387.438400
   1777   1780   1782     1   109.8000471 387.438400
   1778   1777   1780     1   110.5600475 386.601600
   1778   1777   1779     1   109.7500473 328.025600
   1779   1777   1780     1   110.5600475 386.601600
   1780   1789   1790     1   109.5600471 388.275200
   1780   1789   1791     1   109.5600471 388.275200
   1781   1780   1789     1   109.8000471 387.438400
   1781   1780   1782     1   107.5800459 329.699200
   1782   1780   1789     1   109.8000471 387.438400
   1783   1795   1796     1   109.5600471 388.275200
   1783   1795   1797     1   109.5600471 388.275200
   1784   1783   1795     1   109.8000471 387.438400
   1784   1783   1785     1   107.5800459 329.699200
   1785   1783   1795     1   109.8000471 387.438400
   1786   1792   1793     1   109.5600471 388.275200
   1786   1792   1794     1   109.5600471 388.275200
   1787   1786   1792     1   109.8000471 387.438400
   1787   1786   1788     1   107.5800459 329.699200
   1788   1786   1792     1   109.8000471 387.438400
   1790   1789   1798     1   109.7800468 425.094400
   1790   1789   1791     1   108.4600466 328.025600
   1791   1789   1798     1   109.7800468 425.094400
   1793   1792   2684     1   109.7800468 425.094400
   1793   1792   1794     1   108.4600466 328.025600
   1794   1792   2684     1   109.7800468 425.094400
   1796   1795   2698     1   109.7800468 425.094400
   1796   1795   1797     1   108.4600466 328.025600
   1797   1795   2698     1   109.7800468 425.094400
   1800   1801   1802     1   108.0100461 406.684800
   1800   1801   1803     1   108.0100461 406.684800
   1800   1804   1805     1   108.0100461 406.684800
   1800   1804   1806     1   108.0100461 406.684800
   1800   1807   1808     1   108.0100461 406.684800
   1800   1807   1809     1   108.0100461 406.684800
   1801   1800   1829     1   110.1100470 384.091200
   1801   1813   1814     1   109.8000471 387.438400
   1801   1813   1815     1   109.8000471 387.438400
   1802   1801   1813     1   110.5600475 386.601600
   1802   1801   1803     1   109.7500473 328.025600
   1803   1801   1813     1   110.5600475 386.601600
   1804   1800   1829     1   110.1100470 384.091200
   1804   1816   1817     1   109.8000471 387.438400
   1804   1816   1818     1   109.8000471 387.438400
   1805   1804   1816     1   110.5600475 386.601600
   1805   1804   1806     1   109.7500473 328.025600
   1806   1804   1816     1   110.5600475 386.601600
   1807   1800   1829     1   110.1100470 384.091200
   1807   1810   1811     1   109.8000471 387.438400
   1807   1810   1812     1   109.8000471 387.438400
   1808   1807   1810     1   110.5600475 386.601600
   1808   1807   1809     1   109.7500473 328.025600
   1809   1807   1810     1   110.5600475 386.601600
   1810   1819   1820     1   109.5600471 388.275200
   1810   1819   1821     1   109.5600471 388.275200
   1811   1810   1819     1   109.8000471 387.438400
   1811   1810   1812     1   107.5800459 329.699200
   1812   1810   1819     1   109.8000471 387.438400
   1813   1825   1826     1   109.5600471 388.275200
   1813   1825   1827     1   109.5600471 388.275200
   1814   1813   1825     1   109.8000471 387.438400
   1814   1813   1815     1   107.5800459 329.699200
   1815   1813   1825     1   109.8000471 387.438400
   1816   1822   1823     1   109.5600471 388.275200
   1816   1822   1824     1   109.5600471 388.275200
   1817   1816   1822     1   109.8000471 387.438400
   1817   1816   1818     1   107.5800459 329.699200
   1818   1816   1822     1   109.8000471 387.438400
   1820   1819   1828     1   109.7800468 425.094400
   1820   1819   1821     1   108.4600466 328.025600
   1821   1819   1828     1   109.7800468 425.094400
   1823   1822   2712     1   109.7800468 425.094400
   1823   1822   1824     1   108.4600466 328.025600
   1824   1822   2712     1   109.7800468 425.094400
   1826   1825   2726     1   109.7800468 425.094400
   1826   1825   1827     1   108.4600466 328.025600
   1827   1825   2726     1   109.7800468 425.094400
   1830   1831   1832     1   108.0100461 406.684800
   1830   1831   1833     1   108.0100461 406.684800
   1830   1834   1835     1   108.0100461 406.684800
   1830   1834   1836     1   108.0100461 406.684800
   1830   1837   1838     1   108.0100461 406.684800
   1830   1837   1839     1   108.0100461 406.684800
   1831   1830   1859     1   110.1100470 384.091200
   1831   1843   1844     1   109.8000471 387.438400
   1831   1843   1845     1   109.8000471 387.438400
   1832   1831   1843     1   110.5600475 386.601600
   1832   1831   1833     1   109.7500473 328.025600
   1833   1831   1843     1   110.5600475 386.601600
   1834   1830   1859     1   110.1100470 384.091200
   1834   1846   1847     1   109.8000471 387.438400
   1834   1846   1848     1   109.8000471 387.438400
   1835   1834   1846     1   110.5600475 386.601600
   1835   1834   1836     1   109.7500473 328.025600
   1836   1834   1846     1   110.5600475 386.601600
   1837   1830   1859     1   110.1100470 384.091200
   1837   1840   1841     1   109.8000471 387.438400
   1837   1840   1842     1   109.8000471 387.438400
   1838   1837   1840     1   110.5600475 386.601600
   1838   1837   1839     1   109.7500473 328.025600
   1839   1837   1840     1   110.5600475 386.601600
   1840   1849   1850     1   109.5600471 388.275200
   1840   1849   1851     1   109.5600471 388.275200
   1841   1840   1849     1   109.8000471 387.438400
   1841   1840   1842     1   107.5800459 329.699200
   1842   1840   1849     1   109.8000471 387.438400
   1843   1855   1856     1   109.5600471 388.275200
   1843   1855   1857     1   109.5600471 388.275200
   1844   1843   1855     1   109.8000471 387.438400
   1844   1843   1845     1   107.5800459 329.699200
   1845   1843   1855     1   109.8000471 387.438400
   1846   1852   1853     1   109.5600471 388.275200
   1846   1852   1854     1   109.5600471 388.275200
   1847   1846   1852     1   109.8000471 387.438400
   1847   1846   1848     1   107.5800459 329.699200
   1848   1846   1852     1   109.8000471 387.438400
   1850   1849   1858     1   109.7800468 425.094400
   1850   1849   1851     1   108.4600466 328.025600
   1851   1849   1858     1   109.7800468 425.094400
   1853   1852   2740     1   109.7800468 425.094400
   1853   1852   1854     1   108.4600466 328.025600
   1854   1852   2740     1   109.7800468 425.094400
   1856   1855   2754     1   109.7800468 425.094400
   1856   1855   1857     1   108.4600466 328.025600
   1857   1855   2754     1   109.7800468 425.094400
   1860   1863   1864     1   109.8000471 387.438400
   1860   1863   1865     1   109.8000471 387.438400
   1860   1869   1870     1   110.1100470 384.091200
   1860   1869   1871     1   110.1100470 384.091200
   1860   1869   1873     1   110.1100470 384.091200
   1861   1860   1863     1   110.5600475 386.601600
   1861   1860   1869     1   108.0100461 406.684800
   1861   1860   1862     1   109.7500473 328.025600
   1862   1860   1863     1   110.5600475 386.601600
   1862   1860   1869     1   108.0100461 406.684800
   1863   1866   1867     1   109.5600471 388.275200
   1863   1866   1868     1   109.5600471 388.275200
   1864   1863   1866     1   109.8000471 387.438400
   1864   1863   1865     1   107.5800459 329.699200
   1865   1863   1866     1   109.8000471 387.438400
   1867   1866   1872     1   109.7800468 425.094400
   1867   1866   1868     1   108.4600466 328.025600
   1868   1866   1872     1   109.7800468 425.094400
   1870   1869   1871     1   108.3000464 339.740800
   1870   1869   1873     1   108.3000464 339.740800
   1871   1869   1873     1   108.3000464 339.740800
   1874   1877   1878     1   109.8000471 387.438400
   1874   1877   1879     1   109.8000471 387.438400
   1874   1883   1884     1   110.1100470 384.091200
   1874   1883   1885     1   110.1100470 384.091200
   1874   1883   1887     1   110.1100470 384.091200
   1875   1874   1877     1   110.5600475 386.601600
   1875   1874   1883     1   108.0100461 406.684800
   1875   1874   1876     1   109.7500473 328.025600
   1876   1874   1877     1   110.5600475 386.601600
   1876   1874   1883     1   108.0100461 406.684800
   1877   1880   1881     1   109.5600471 388.275200
   1877   1880   1882     1   109.5600471 388.275200
   1878   1877   1880     1   109.8000471 387.438400
   1878   1877   1879     1   107.5800459 329.699200
   1879   1877   1880     1   109.8000471 387.438400
   1881   1880   1886     1   109.7800468 425.094400
   1881   1880   1882     1   108.4600466 328.025600
   1882   1880   1886     1   109.7800468 425.094400
   1884   1883   1885     1   108.3000464 339.740800
   1884   1883   1887     1   108.3000464 339.740800
   1885   1883   1887     1   108.3000464 339.740800
   1888   1891   1892     1   109.8000471 387.438400
   1888   1891   1893     1   109.8000471 387.438400
   1888   1897   1898     1   110.1100470 384.091200
   1888   1897   1899     1   110.1100470 384.091200
   1888   1897   1901     1   110.1100470 384.091200
   1889   1888   1891     1   110.5600475 386.601600
   1889   1888   1897     1   108.0100461 406.684800
   1889   1888   1890     1   109.7500473 328.025600
   1890   1888   1891     1   110.5600475 386.601600
   1890   1888   1897     1   108.0100461 406.684800
   1891   1894   1895     1   109.5600471 388.275200
   1891   1894   1896     1   109.5600471 388.275200
   1892   1891   1894     1   109.8000471 387.438400
   1892   1891   1893     1   107.5800459 329.699200
   1893   1891   1894     1   109.8000471 387.438400
   1895   1894   1900     1   109.7800468 425.094400
   1895   1894   1896     1   108.4600466 328.025600
   1896   1894   1900     1   109.7800468 425.094400
   1898   1897   1899     1   108.3000464 339.740800
   1898   1897   1901     1   108.3000464 339.740800
   1899   1897   1901     1   108.3000464 339.740800
   1902   1905   1906     1   109.8000471 387.438400
   1902   1905   1907     1   109.8000471 387.438400
   1902   1911   1912     1   110.1100470 384.091200
   1902   1911   1913     1   110.1100470 384.091200
   1902   1911   1915     1   110.1100470 384.091200
   1903   1902   1905     1   110.5600475 386.601600
   1903   1902   1911     1   108.0100461 406.684800
   1903   1902   1904     1   109.7500473 328.025600
   1904   1902   1905     1   110.5600475 386.601600
   1904   1902   1911     1   108.0100461 406.684800
   1905   1908   1909     1   109.5600471 388.275200
   1905   1908   1910     1   109.5600471 388.275200
   1906   1905   1908     1   109.8000471 387.438400
   1906   1905   1907     1   107.5800459 329.699200
   1907   1905   1908     1   109.8000471 387.438400
   1909   1908   1914     1   109.7800468 425.094400
   1909   1908   1910     1   108.4600466 328.025600
   1910   1908   1914     1   109.7800468 425.094400
   1912   1911   1913     1   108.3000464 339.740800
   1912   1911   1915     1   108.3000464 339.740800
   1913   1911   1915     1   108.3000464 339.740800
   1916   1919   1920     1   109.8000471 387.438400
   1916   1919   1921     1   109.8000471 387.438400
   1916   1925   1926     1   110.1100470 384.091200
   1916   1925   1927     1   110.1100470 384.091200
   1916   1925   1929     1   110.1100470 384.091200
   1917   1916   1919     1   110.5600475 386.601600
   1917   1916   1925     1   108.0100461 406.684800
   1917   1916   1918     1   109.7500473 328.025600
   1918   1916   1919     1   110.5600475 386.601600
   1918   1916   1925     1   108.0100461 406.684800
   1919   1922   1923     1   109.5600471 388.275200
   1919   1922   1924     1   109.5600471 388.275200
   1920   1919   1922     1   109.8000471 387.438400
   1920   1919   1921     1   107.5800459 329.699200
   1921   1919   1922     1   109.8000471 387.438400
   1923   1922   1928     1   109.7800468 425.094400
   1923   1922   1924     1   108.4600466 328.025600
   1924   1922   1928     1   109.7800468 425.094400
   1926   1925   1927     1   108.3000464 339.740800
   1926   1925   1929     1   108.3000464 339.740800
   1927   1925   1929     1   108.3000464 339.740800
   1930   1933   1934     1   109.8000471 387.438400
   1930   1933   1935     1   109.8000471 387.438400
   1930   1939   1940     1   110.1100470 384.091200
   1930   1939   1941     1   110.1100470 384.091200
   1930   1939   1943     1   110.1100470 384.091200
   1931   1930   1933     1   110.5600475 386.601600
   1931   1930   1939     1   108.0100461 406.684800
   1931   1930   1932     1   109.7500473 328.025600
   1932   1930   1933     1   110.5600475 386.601600
   1932   1930   1939     1   108.0100461 406.684800
   1933   1936   1937     1   109.5600471 388.275200
   1933   1936   1938     1   109.5600471 388.275200
   1934   1933   1936     1   109.8000471 387.438400
   1934   1933   1935     1   107.5800459 329.699200
   1935   1933   1936     1   109.8000471 387.438400
   1937   1936   1942     1   109.7800468 425.094400
   1937   1936   1938     1   108.4600466 328.025600
   1938   1936   1942     1   109.7800468 425.094400
   1940   1939   1941     1   108.3000464 339.740800
   1940   1939   1943     1   108.3000464 339.740800
   1941   1939   1943     1   108.3000464 339.740800
   1944   1947   1948     1   109.8000471 387.438400
   1944   1947   1949     1   109.8000471 387.438400
   1944   1953   1954     1   110.1100470 384.091200
   1944   1953   1955     1   110.1100470 384.091200
   1944   1953   1957     1   110.1100470 384.091200
   1945   1944   1947     1   110.5600475 386.601600
   1945   1944   1953     1   108.0100461 406.684800
   1945   1944   1946     1   109.7500473 328.025600
   1946   1944   1947     1   110.5600475 386.601600
   1946   1944   1953     1   108.0100461 406.684800
   1947   1950   1951     1   109.5600471 388.275200
   1947   1950   1952     1   109.5600471 388.275200
   1948   1947   1950     1   109.8000471 387.438400
   1948   1947   1949     1   107.5800459 329.699200
   1949   1947   1950     1   109.8000471 387.438400
   1951   1950   1956     1   109.7800468 425.094400
   1951   1950   1952     1   108.4600466 328.025600
   1952   1950   1956     1   109.7800468 425.094400
   1954   1953   1955     1   108.3000464 339.740800
   1954   1953   1957     1   108.3000464 339.740800
   1955   1953   1957     1   108.3000464 339.740800
   1958   1961   1962     1   109.8000471 387.438400
   1958   1961   1963     1   109.8000471 387.438400
   1958   1967   1968     1   110.1100470 384.091200
   1958   1967   1969     1   110.1100470 384.091200
   1958   1967   1971     1   110.1100470 384.091200
   1959   1958   1961     1   110.5600475 386.601600
   1959   1958   1967     1   108.0100461 406.684800
   1959   1958   1960     1   109.7500473 328.025600
   1960   1958   1961     1   110.5600475 386.601600
   1960   1958   1967     1   108.0100461 406.684800
   1961   1964   1965     1   109.5600471 388.275200
   1961   1964   1966     1   109.5600471 388.275200
   1962   1961   1964     1   109.8000471 387.438400
   1962   1961   1963     1   107.5800459 329.699200
   1963   1961   1964     1   109.8000471 387.438400
   1965   1964   1970     1   109.7800468 425.094400
   1965   1964   1966     1   108.4600466 328.025600
   1966   1964   1970     1   109.7800468 425.094400
   1968   1967   1969     1   108.3000464 339.740800
   1968   1967   1971     1   108.3000464 339.740800
   1969   1967   1971     1   108.3000464 339.740800
   1972   1975   1976     1   109.8000471 387.438400
   1972   1975   1977     1   109.8000471 387.438400
   1972   1981   1982     1   110.1100470 384.091200
   1972   1981   1983     1   110.1100470 384.091200
   1972   1981   1985     1   110.1100470 384.091200
   1973   1972   1975     1   110.5600475 386.601600
   1973   1972   1981     1   108.0100461 406.684800
   1973   1972   1974     1   109.7500473 328.025600
   1974   1972   1975     1   110.5600475 386.601600
   1974   1972   1981     1   108.0100461 406.684800
   1975   1978   1979     1   109.5600471 388.275200
   1975   1978   1980     1   109.5600471 388.275200
   1976   1975   1978     1   109.8000471 387.438400
   1976   1975   1977     1   107.5800459 329.699200
   1977   1975   1978     1   109.8000471 387.438400
   1979   1978   1984     1   109.7800468 425.094400
   1979   1978   1980     1   108.4600466 328.025600
   1980   1978   1984     1   109.7800468 425.094400
   1982   1981   1983     1   108.3000464 339.740800
   1982   1981   1985     1   108.3000464 339.740800
   1983   1981   1985     1   108.3000464 339.740800
   1986   1989   1990     1   109.8000471 387.438400
   1986   1989   1991     1   109.8000471 387.438400
   1986   1995   1996     1   110.1100470 384.091200
   1986   1995   1997     1   110.1100470 384.091200
   1986   1995   1999     1   110.1100470 384.091200
   1987   1986   1989     1   110.5600475 386.601600
   1987   1986   1995     1   108.0100461 406.684800
   1987   1986   1988     1   109.7500473 328.025600
   1988   1986   1989     1   110.5600475 386.601600
   1988   1986   1995     1   108.0100461 406.684800
   1989   1992   1993     1   109.5600471 388.275200
   1989   1992   1994     1   109.5600471 388.275200
   1990   1989   1992     1   109.8000471 387.438400
   1990   1989   1991     1   107.5800459 329.699200
   1991   1989   1992     1   109.8000471 387.438400
   1993   1992   1998     1   109.7800468 425.094400
   1993   1992   1994     1   108.4600466 328.025600
   1994   1992   1998     1   109.7800468 425.094400
   1996   1995   1997     1   108.3000464 339.740800
   1996   1995   1999     1   108.3000464 339.740800
   1997   1995   1999     1   108.3000464 339.740800
   2000   2003   2004     1   109.8000471 387.438400
   2000   2003   2005     1   109.8000471 387.438400
   2000   2009   2010     1   110.1100470 384.091200
   2000   2009   2011     1   110.1100470 384.091200
   2000   2009   2013     1   110.1100470 384.091200
   2001   2000   2003     1   110.5600475 386.601600
   2001   2000   2009     1   108.0100461 406.684800
   2001   2000   2002     1   109.7500473 328.025600
   2002   2000   2003     1   110.5600475 386.601600
   2002   2000   2009     1   108.0100461 406.684800
   2003   2006   2007     1   109.5600471 388.275200
   2003   2006   2008     1   109.5600471 388.275200
   2004   2003   2006     1   109.8000471 387.438400
   2004   2003   2005     1   107.5800459 329.699200
   2005   2003   2006     1   109.8000471 387.438400
   2007   2006   2012     1   109.7800468 425.094400
   2007   2006   2008     1   108.4600466 328.025600
   2008   2006   2012     1   109.7800468 425.094400
   2010   2009   2011     1   108.3000464 339.740800
   2010   2009   2013     1   108.3000464 339.740800
   2011   2009   2013     1   108.3000464 339.740800
   2014   2017   2018     1   109.8000471 387.438400
   2014   2017   2019     1   109.8000471 387.438400
   2014   2023   2024     1   110.1100470 384.091200
   2014   2023   2025     1   110.1100470 384.091200
   2014   2023   2027     1   110.1100470 384.091200
   2015   2014   2017     1   110.5600475 386.601600
   2015   2014   2023     1   108.0100461 406.684800
   2015   2014   2016     1   109.7500473 328.025600
   2016   2014   2017     1   110.5600475 386.601600
   2016   2014   2023     1   108.0100461 406.684800
   2017   2020   2021     1   109.5600471 388.275200
   2017   2020   2022     1   109.5600471 388.275200
   2018   2017   2020     1   109.8000471 387.438400
   2018   2017   2019     1   107.5800459 329.699200
   2019   2017   2020     1   109.8000471 387.438400
   2021   2020   2026     1   109.7800468 425.094400
   2021   2020   2022     1   108.4600466 328.025600
   2022   2020   2026     1   109.7800468 425.094400
   2024   2023   2025     1   108.3000464 339.740800
   2024   2023   2027     1   108.3000464 339.740800
   2025   2023   2027     1   108.3000464 339.740800
   2028   2031   2032     1   109.8000471 387.438400
   2028   2031   2033     1   109.8000471 387.438400
   2028   2037   2038     1   110.1100470 384.091200
   2028   2037   2039     1   110.1100470 384.091200
   2028   2037   2041     1   110.1100470 384.091200
   2029   2028   2031     1   110.5600475 386.601600
   2029   2028   2037     1   108.0100461 406.684800
   2029   2028   2030     1   109.7500473 328.025600
   2030   2028   2031     1   110.5600475 386.601600
   2030   2028   2037     1   108.0100461 406.684800
   2031   2034   2035     1   109.5600471 388.275200
   2031   2034   2036     1   109.5600471 388.275200
   2032   2031   2034     1   109.8000471 387.438400
   2032   2031   2033     1   107.5800459 329.699200
   2033   2031   2034     1   109.8000471 387.438400
   2035   2034   2040     1   109.7800468 425.094400
   2035   2034   2036     1   108.4600466 328.025600
   2036   2034   2040     1   109.7800468 425.094400
   2038   2037   2039     1   108.3000464 339.740800
   2038   2037   2041     1   108.3000464 339.740800
   2039   2037   2041     1   108.3000464 339.740800
   2042   2045   2046     1   109.8000471 387.438400
   2042   2045   2047     1   109.8000471 387.438400
   2042   2051   2052     1   110.1100470 384.091200
   2042   2051   2053     1   110.1100470 384.091200
   2042   2051   2055     1   110.1100470 384.091200
   2043   2042   2045     1   110.5600475 386.601600
   2043   2042   2051     1   108.0100461 406.684800
   2043   2042   2044     1   109.7500473 328.025600
   2044   2042   2045     1   110.5600475 386.601600
   2044   2042   2051     1   108.0100461 406.684800
   2045   2048   2049     1   109.5600471 388.275200
   2045   2048   2050     1   109.5600471 388.275200
   2046   2045   2048     1   109.8000471 387.438400
   2046   2045   2047     1   107.5800459 329.699200
   2047   2045   2048     1   109.8000471 387.438400
   2049   2048   2054     1   109.7800468 425.094400
   2049   2048   2050     1   108.4600466 328.025600
   2050   2048   2054     1   109.7800468 425.094400
   2052   2051   2053     1   108.3000464 339.740800
   2052   2051   2055     1   108.3000464 339.740800
   2053   2051   2055     1   108.3000464 339.740800
   2056   2059   2060     1   109.8000471 387.438400
   2056   2059   2061     1   109.8000471 387.438400
   2056   2065   2066     1   110.1100470 384.091200
   2056   2065   2067     1   110.1100470 384.091200
   2056   2065   2069     1   110.1100470 384.091200
   2057   2056   2059     1   110.5600475 386.601600
   2057   2056   2065     1   108.0100461 406.684800
   2057   2056   2058     1   109.7500473 328.025600
   2058   2056   2059     1   110.5600475 386.601600
   2058   2056   2065     1   108.0100461 406.684800
   2059   2062   2063     1   109.5600471 388.275200
   2059   2062   2064     1   109.5600471 388.275200
   2060   2059   2062     1   109.8000471 387.438400
   2060   2059   2061     1   107.5800459 329.699200
   2061   2059   2062     1   109.8000471 387.438400
   2063   2062   2068     1   109.7800468 425.094400
   2063   2062   2064     1   108.4600466 328.025600
   2064   2062   2068     1   109.7800468 425.094400
   2066   2065   2067     1   108.3000464 339.740800
   2066   2065   2069     1   108.3000464 339.740800
   2067   2065   2069     1   108.3000464 339.740800
   2070   2073   2074     1   109.8000471 387.438400
   2070   2073   2075     1   109.8000471 387.438400
   2070   2079   2080     1   110.1100470 384.091200
   2070   2079   2081     1   110.1100470 384.091200
   2070   2079   2083     1   110.1100470 384.091200
   2071   2070   2073     1   110.5600475 386.601600
   2071   2070   2079     1   108.0100461 406.684800
   2071   2070   2072     1   109.7500473 328.025600
   2072   2070   2073     1   110.5600475 386.601600
   2072   2070   2079     1   108.0100461 406.684800
   2073   2076   2077     1   109.5600471 388.275200
   2073   2076   2078     1   109.5600471 388.275200
   2074   2073   2076     1   109.8000471 387.438400
   2074   2073   2075     1   107.5800459 329.699200
   2075   2073   2076     1   109.8000471 387.438400
   2077   2076   2082     1   109.7800468 425.094400
   2077   2076   2078     1   108.4600466 328.025600
   2078   2076   2082     1   109.7800468 425.094400
   2080   2079   2081     1   108.3000464 339.740800
   2080   2079   2083     1   108.3000464 339.740800
   2081   2079   2083     1   108.3000464 339.740800
   2084   2087   2088     1   109.8000471 387.438400
   2084   2087   2089     1   109.8000471 387.438400
   2084   2093   2094     1   110.1100470 384.091200
   2084   2093   2095     1   110.1100470 384.091200
   2084   2093   2097     1   110.1100470 384.091200
   2085   2084   2087     1   110.5600475 386.601600
   2085   2084   2093     1   108.0100461 406.684800
   2085   2084   2086     1   109.7500473 328.025600
   2086   2084   2087     1   110.5600475 386.601600
   2086   2084   2093     1   108.0100461 406.684800
   2087   2090   2091     1   109.5600471 388.275200
   2087   2090   2092     1   109.5600471 388.275200
   2088   2087   2090     1   109.8000471 387.438400
   2088   2087   2089     1   107.5800459 329.699200
   2089   2087   2090     1   109.8000471 387.438400
   2091   2090   2096     1   109.7800468 425.094400
   2091   2090   2092     1   108.4600466 328.025600
   2092   2090   2096     1   109.7800468 425.094400
   2094   2093   2095     1   108.3000464 339.740800
   2094   2093   2097     1   108.3000464 339.740800
   2095   2093   2097     1   108.3000464 339.740800
   2098   2101   2102     1   109.8000471 387.438400
   2098   2101   2103     1   109.8000471 387.438400
   2098   2107   2108     1   110.1100470 384.091200
   2098   2107   2109     1   110.1100470 384.091200
   2098   2107   2111     1   110.1100470 384.091200
   2099   2098   2101     1   110.5600475 386.601600
   2099   2098   2107     1   108.0100461 406.684800
   2099   2098   2100     1   109.7500473 328.025600
   2100   2098   2101     1   110.5600475 386.601600
   2100   2098   2107     1   108.0100461 406.684800
   2101   2104   2105     1   109.5600471 388.275200
   2101   2104   2106     1   109.5600471 388.275200
   2102   2101   2104     1   109.8000471 387.438400
   2102   2101   2103     1   107.5800459 329.699200
   2103   2101   2104     1   109.8000471 387.438400
   2105   2104   2110     1   109.7800468 425.094400
   2105   2104   2106     1   108.4600466 328.025600
   2106   2104   2110     1   109.7800468 425.094400
   2108   2107   2109     1   108.3000464 339.740800
   2108   2107   2111     1   108.3000464 339.740800
   2109   2107   2111     1   108.3000464 339.740800
   2112   2115   2116     1   109.8000471 387.438400
   2112   2115   2117     1   109.8000471 387.438400
   2112   2121   2122     1   110.1100470 384.091200
   2112   2121   2123     1   110.1100470 384.091200
   2112   2121   2125     1   110.1100470 384.091200
   2113   2112   2115     1   110.5600475 386.601600
   2113   2112   2121     1   108.0100461 406.684800
   2113   2112   2114     1   109.7500473 328.025600
   2114   2112   2115     1   110.5600475 386.601600
   2114   2112   2121     1   108.0100461 406.684800
   2115   2118   2119     1   109.5600471 388.275200
   2115   2118   2120     1   109.5600471 388.275200
   2116   2115   2118     1   109.8000471 387.438400
   2116   2115   2117     1   107.5800459 329.699200
   2117   2115   2118     1   109.8000471 387.438400
   2119   2118   2124     1   109.7800468 425.094400
   2119   2118   2120     1   108.4600466 328.025600
   2120   2118   2124     1   109.7800468 425.094400
   2122   2121   2123     1   108.3000464 339.740800
   2122   2121   2125     1   108.3000464 339.740800
   2123   2121   2125     1   108.3000464 339.740800
   2126   2129   2130     1   109.8000471 387.438400
   2126   2129   2131     1   109.8000471 387.438400
   2126   2135   2136     1   110.1100470 384.091200
   2126   2135   2137     1   110.1100470 384.091200
   2126   2135   2139     1   110.1100470 384.091200
   2127   2126   2129     1   110.5600475 386.601600
   2127   2126   2135     1   108.0100461 406.684800
   2127   2126   2128     1   109.7500473 328.025600
   2128   2126   2129     1   110.5600475 386.601600
   2128   2126   2135     1   108.0100461 406.684800
   2129   2132   2133     1   109.5600471 388.275200
   2129   2132   2134     1   109.5600471 388.275200
   2130   2129   2132     1   109.8000471 387.438400
   2130   2129   2131     1   107.5800459 329.699200
   2131   2129   2132     1   109.8000471 387.438400
   2133   2132   2138     1   109.7800468 425.094400
   2133   2132   2134     1   108.4600466 328.025600
   2134   2132   2138     1   109.7800468 425.094400
   2136   2135   2137     1   108.3000464 339.740800
   2136   2135   2139     1   108.3000464 339.740800
   2137   2135   2139     1   108.3000464 339.740800
   2140   2143   2144     1   109.8000471 387.438400
   2140   2143   2145     1   109.8000471 387.438400
   2140   2149   2150     1   110.1100470 384.091200
   2140   2149   2151     1   110.1100470 384.091200
   2140   2149   2153     1   110.1100470 384.091200
   2141   2140   2143     1   110.5600475 386.601600
   2141   2140   2149     1   108.0100461 406.684800
   2141   2140   2142     1   109.7500473 328.025600
   2142   2140   2143     1   110.5600475 386.601600
   2142   2140   2149     1   108.0100461 406.684800
   2143   2146   2147     1   109.5600471 388.275200
   2143   2146   2148     1   109.5600471 388.275200
   2144   2143   2146     1   109.8000471 387.438400
   2144   2143   2145     1   107.5800459 329.699200
   2145   2143   2146     1   109.8000471 387.438400
   2147   2146   2152     1   109.7800468 425.094400
   2147   2146   2148     1   108.4600466 328.025600
   2148   2146   2152     1   109.7800468 425.094400
   2150   2149   2151     1   108.3000464 339.740800
   2150   2149   2153     1   108.3000464 339.740800
   2151   2149   2153     1   108.3000464 339.740800
   2154   2157   2158     1   109.8000471 387.438400
   2154   2157   2159     1   109.8000471 387.438400
   2154   2163   2164     1   110.1100470 384.091200
   2154   2163   2165     1   110.1100470 384.091200
   2154   2163   2167     1   110.1100470 384.091200
   2155   2154   2157     1   110.5600475 386.601600
   2155   2154   2163     1   108.0100461 406.684800
   2155   2154   2156     1   109.7500473 328.025600
   2156   2154   2157     1   110.5600475 386.601600
   2156   2154   2163     1   108.0100461 406.684800
   2157   2160   2161     1   109.5600471 388.275200
   2157   2160   2162     1   109.5600471 388.275200
   2158   2157   2160     1   109.8000471 387.438400
   2158   2157   2159     1   107.5800459 329.699200
   2159   2157   2160     1   109.8000471 387.438400
   2161   2160   2166     1   109.7800468 425.094400
   2161   2160   2162     1   108.4600466 328.025600
   2162   2160   2166     1   109.7800468 425.094400
   2164   2163   2165     1   108.3000464 339.740800
   2164   2163   2167     1   108.3000464 339.740800
   2165   2163   2167     1   108.3000464 339.740800
   2168   2171   2172     1   109.8000471 387.438400
   2168   2171   2173     1   109.8000471 387.438400
   2168   2177   2178     1   110.1100470 384.091200
   2168   2177   2179     1   110.1100470 384.091200
   2168   2177   2181     1   110.1100470 384.091200
   2169   2168   2171     1   110.5600475 386.601600
   2169   2168   2177     1   108.0100461 406.684800
   2169   2168   2170     1   109.7500473 328.025600
   2170   2168   2171     1   110.5600475 386.601600
   2170   2168   2177     1   108.0100461 406.684800
   2171   2174   2175     1   109.5600471 388.275200
   2171   2174   2176     1   109.5600471 388.275200
   2172   2171   2174     1   109.8000471 387.438400
   2172   2171   2173     1   107.5800459 329.699200
   2173   2171   2174     1   109.8000471 387.438400
   2175   2174   2180     1   109.7800468 425.094400
   2175   2174   2176     1   108.4600466 328.025600
   2176   2174   2180     1   109.7800468 425.094400
   2178   2177   2179     1   108.3000464 339.740800
   2178   2177   2181     1   108.3000464 339.740800
   2179   2177   2181     1   108.3000464 339.740800
   2182   2185   2186     1   109.8000471 387.438400
   2182   2185   2187     1   109.8000471 387.438400
   2182   2191   2192     1   110.1100470 384.091200
   2182   2191   2193     1   110.1100470 384.091200
   2182   2191   2195     1   110.1100470 384.091200
   2183   2182   2185     1   110.5600475 386.601600
   2183   2182   2191     1   108.0100461 406.684800
   2183   2182   2184     1   109.7500473 328.025600
   2184   2182   2185     1   110.5600475 386.601600
   2184   2182   2191     1   108.0100461 406.684800
   2185   2188   2189     1   109.5600471 388.275200
   2185   2188   2190     1   109.5600471 388.275200
   2186   2185   2188     1   109.8000471 387.438400
   2186   2185   2187     1   107.5800459 329.699200
   2187   2185   2188     1   109.8000471 387.438400
   2189   2188   2194     1   109.7800468 425.094400
   2189   2188   2190     1   108.4600466 328.025600
   2190   2188   2194     1   109.7800468 425.094400
   2192   2191   2193     1   108.3000464 339.740800
   2192   2191   2195     1   108.3000464 339.740800
   2193   2191   2195     1   108.3000464 339.740800
   2196   2199   2200     1   109.8000471 387.438400
   2196   2199   2201     1   109.8000471 387.438400
   2196   2205   2206     1   110.1100470 384.091200
   2196   2205   2207     1   110.1100470 384.091200
   2196   2205   2209     1   110.1100470 384.091200
   2197   2196   2199     1   110.5600475 386.601600
   2197   2196   2205     1   108.0100461 406.684800
   2197   2196   2198     1   109.7500473 328.025600
   2198   2196   2199     1   110.5600475 386.601600
   2198   2196   2205     1   108.0100461 406.684800
   2199   2202   2203     1   109.5600471 388.275200
   2199   2202   2204     1   109.5600471 388.275200
   2200   2199   2202     1   109.8000471 387.438400
   2200   2199   2201     1   107.5800459 329.699200
   2201   2199   2202     1   109.8000471 387.438400
   2203   2202   2208     1   109.7800468 425.094400
   2203   2202   2204     1   108.4600466 328.025600
   2204   2202   2208     1   109.7800468 425.094400
   2206   2205   2207     1   108.3000464 339.740800
   2206   2205   2209     1   108.3000464 339.740800
   2207   2205   2209     1   108.3000464 339.740800
   2210   2213   2214     1   109.8000471 387.438400
   2210   2213   2215     1   109.8000471 387.438400
   2210   2219   2220     1   110.1100470 384.091200
   2210   2219   2221     1   110.1100470 384.091200
   2210   2219   2223     1   110.1100470 384.091200
   2211   2210   2213     1   110.5600475 386.601600
   2211   2210   2219     1   108.0100461 406.684800
   2211   2210   2212     1   109.7500473 328.025600
   2212   2210   2213     1   110.5600475 386.601600
   2212   2210   2219     1   108.0100461 406.684800
   2213   2216   2217     1   109.5600471 388.275200
   2213   2216   2218     1   109.5600471 388.275200
   2214   2213   2216     1   109.8000471 387.438400
   2214   2213   2215     1   107.5800459 329.699200
   2215   2213   2216     1   109.8000471 387.438400
   2217   2216   2222     1   109.7800468 425.094400
   2217   2216   2218     1   108.4600466 328.025600
   2218   2216   2222     1   109.7800468 425.094400
   2220   2219   2221     1   108.3000464 339.740800
   2220   2219   2223     1   108.3000464 339.740800
   2221   2219   2223     1   108.3000464 339.740800
   2224   2227   2228     1   109.8000471 387.438400
   2224   2227   2229     1   109.8000471 387.438400
   2224   2233   2234     1   110.1100470 384.091200
   2224   2233   2235     1   110.1100470 384.091200
   2224   2233   2237     1   110.1100470 384.091200
   2225   2224   2227     1   110.5600475 386.601600
   2225   2224   2233     1   108.0100461 406.684800
   2225   2224   2226     1   109.7500473 328.025600
   2226   2224   2227     1   110.5600475 386.601600
   2226   2224   2233     1   108.0100461 406.684800
   2227   2230   2231     1   109.5600471 388.275200
   2227   2230   2232     1   109.5600471 388.275200
   2228   2227   2230     1   109.8000471 387.438400
   2228   2227   2229     1   107.5800459 329.699200
   2229   2227   2230     1   109.8000471 387.438400
   2231   2230   2236     1   109.7800468 425.094400
   2231   2230   2232     1   108.4600466 328.025600
   2232   2230   2236     1   109.7800468 425.094400
   2234   2233   2235     1   108.3000464 339.740800
   2234   2233   2237     1   108.3000464 339.740800
   2235   2233   2237     1   108.3000464 339.740800
   2238   2241   2242     1   109.8000471 387.438400
   2238   2241   2243     1   109.8000471 387.438400
   2238   2247   2248     1   110.1100470 384.091200
   2238   2247   2249     1   110.1100470 384.091200
   2238   2247   2251     1   110.1100470 384.091200
   2239   2238   2241     1   110.5600475 386.601600
   2239   2238   2247     1   108.0100461 406.684800
   2239   2238   2240     1   109.7500473 328.025600
   2240   2238   2241     1   110.5600475 386.601600
   2240   2238   2247     1   108.0100461 406.684800
   2241   2244   2245     1   109.5600471 388.275200
   2241   2244   2246     1   109.5600471 388.275200
   2242   2241   2244     1   109.8000471 387.438400
   2242   2241   2243     1   107.5800459 329.699200
   2243   2241   2244     1   109.8000471 387.438400
   2245   2244   2250     1   109.7800468 425.094400
   2245   2244   2246     1   108.4600466 328.025600
   2246   2244   2250     1   109.7800468 425.094400
   2248   2247   2249     1   108.3000464 339.740800
   2248   2247   2251     1   108.3000464 339.740800
   2249   2247   2251     1   108.3000464 339.740800
   2252   2255   2256     1   109.8000471 387.438400
   2252   2255   2257     1   109.8000471 387.438400
   2252   2261   2262     1   110.1100470 384.091200
   2252   2261   2263     1   110.1100470 384.091200
   2252   2261   2265     1   110.1100470 384.091200
   2253   2252   2255     1   110.5600475 386.601600
   2253   2252   2261     1   108.0100461 406.684800
   2253   2252   2254     1   109.7500473 328.025600
   2254   2252   2255     1   110.5600475 386.601600
   2254   2252   2261     1   108.0100461 406.684800
   2255   2258   2259     1   109.5600471 388.275200
   2255   2258   2260     1   109.5600471 388.275200
   2256   2255   2258     1   109.8000471 387.438400
   2256   2255   2257     1   107.5800459 329.699200
   2257   2255   2258     1   109.8000471 387.438400
   2259   2258   2264     1   109.7800468 425.094400
   2259   2258   2260     1   108.4600466 328.025600
   2260   2258   2264     1   109.7800468 425.094400
   2262   2261   2263     1   108.3000464 339.740800
   2262   2261   2265     1   108.3000464 339.740800
   2263   2261   2265     1   108.3000464 339.740800
   2266   2269   2270     1   109.8000471 387.438400
   2266   2269   2271     1   109.8000471 387.438400
   2266   2275   2276     1   110.1100470 384.091200
   2266   2275   2277     1   110.1100470 384.091200
   2266   2275   2279     1   110.1100470 384.091200
   2267   2266   2269     1   110.5600475 386.601600
   2267   2266   2275     1   108.0100461 406.684800
   2267   2266   2268     1   109.7500473 328.025600
   2268   2266   2269     1   110.5600475 386.601600
   2268   2266   2275     1   108.0100461 406.684800
   2269   2272   2273     1   109.5600471 388.275200
   2269   2272   2274     1   109.5600471 388.275200
   2270   2269   2272     1   109.8000471 387.438400
   2270   2269   2271     1   107.5800459 329.699200
   2271   2269   2272     1   109.8000471 387.438400
   2273   2272   2278     1   109.7800468 425.094400
   2273   2272   2274     1   108.4600466 328.025600
   2274   2272   2278     1   109.7800468 425.094400
   2276   2275   2277     1   108.3000464 339.740800
   2276   2275   2279     1   108.3000464 339.740800
   2277   2275   2279     1   108.3000464 339.740800
   2280   2283   2284     1   109.8000471 387.438400
   2280   2283   2285     1   109.8000471 387.438400
   2280   2289   2290     1   110.1100470 384.091200
   2280   2289   2291     1   110.1100470 384.091200
   2280   2289   2293     1   110.1100470 384.091200
   2281   2280   2283     1   110.5600475 386.601600
   2281   2280   2289     1   108.0100461 406.684800
   2281   2280   2282     1   109.7500473 328.025600
   2282   2280   2283     1   110.5600475 386.601600
   2282   2280   2289     1   108.0100461 406.684800
   2283   2286   2287     1   109.5600471 388.275200
   2283   2286   2288     1   109.5600471 388.275200
   2284   2283   2286     1   109.8000471 387.438400
   2284   2283   2285     1   107.5800459 329.699200
   2285   2283   2286     1   109.8000471 387.438400
   2287   2286   2292     1   109.7800468 425.094400
   2287   2286   2288     1   108.4600466 328.025600
   2288   2286   2292     1   109.7800468 425.094400
   2290   2289   2291     1   108.3000464 339.740800
   2290   2289   2293     1   108.3000464 339.740800
   2291   2289   2293     1   108.3000464 339.740800
   2294   2297   2298     1   109.8000471 387.438400
   2294   2297   2299     1   109.8000471 387.438400
   2294   2303   2304     1   110.1100470 384.091200
   2294   2303   2305     1   110.1100470 384.091200
   2294   2303   2307     1   110.1100470 384.091200
   2295   2294   2297     1   110.5600475 386.601600
   2295   2294   2303     1   108.0100461 406.684800
   2295   2294   2296     1   109.7500473 328.025600
   2296   2294   2297     1   110.5600475 386.601600
   2296   2294   2303     1   108.0100461 406.684800
   2297   2300   2301     1   109.5600471 388.275200
   2297   2300   2302     1   109.5600471 388.275200
   2298   2297   2300     1   109.8000471 387.438400
   2298   2297   2299     1   107.5800459 329.699200
   2299   2297   2300     1   109.8000471 387.438400
   2301   2300   2306     1   109.7800468 425.094400
   2301   2300   2302     1   108.4600466 328.025600
   2302   2300   2306     1   109.7800468 425.094400
   2304   2303   2305     1   108.3000464 339.740800
   2304   2303   2307     1   108.3000464 339.740800
   2305   2303   2307     1   108.3000464 339.740800
   2308   2311   2312     1   109.8000471 387.438400
   2308   2311   2313     1   109.8000471 387.438400
   2308   2317   2318     1   110.1100470 384.091200
   2308   2317   2319     1   110.1100470 384.091200
   2308   2317   2321     1   110.1100470 384.091200
   2309   2308   2311     1   110.5600475 386.601600
   2309   2308   2317     1   108.0100461 406.684800
   2309   2308   2310     1   109.7500473 328.025600
   2310   2308   2311     1   110.5600475 386.601600
   2310   2308   2317     1   108.0100461 406.684800
   2311   2314   2315     1   109.5600471 388.275200
   2311   2314   2316     1   109.5600471 388.275200
   2312   2311   2314     1   109.8000471 387.438400
   2312   2311   2313     1   107.5800459 329.699200
   2313   2311   2314     1   109.8000471 387.438400
   2315   2314   2320     1   109.7800468 425.094400
   2315   2314   2316     1   108.4600466 328.025600
   2316   2314   2320     1   109.7800468 425.094400
   2318   2317   2319     1   108.3000464 339.740800
   2318   2317   2321     1   108.3000464 339.740800
   2319   2317   2321     1   108.3000464 339.740800
   2322   2325   2326     1   109.8000471 387.438400
   2322   2325   2327     1   109.8000471 387.438400
   2322   2331   2332     1   110.1100470 384.091200
   2322   2331   2333     1   110.1100470 384.091200
   2322   2331   2335     1   110.1100470 384.091200
   2323   2322   2325     1   110.5600475 386.601600
   2323   2322   2331     1   108.0100461 406.684800
   2323   2322   2324     1   109.7500473 328.025600
   2324   2322   2325     1   110.5600475 386.601600
   2324   2322   2331     1   108.0100461 406.684800
   2325   2328   2329     1   109.5600471 388.275200
   2325   2328   2330     1   109.5600471 388.275200
   2326   2325   2328     1   109.8000471 387.438400
   2326   2325   2327     1   107.5800459 329.699200
   2327   2325   2328     1   109.8000471 387.438400
   2329   2328   2334     1   109.7800468 425.094400
   2329   2328   2330     1   108.4600466 328.025600
   2330   2328   2334     1   109.7800468 425.094400
   2332   2331   2333     1   108.3000464 339.740800
   2332   2331   2335     1   108.3000464 339.740800
   2333   2331   2335     1   108.3000464 339.740800
   2336   2339   2340     1   109.8000471 387.438400
   2336   2339   2341     1   109.8000471 387.438400
   2336   2345   2346     1   110.1100470 384.091200
   2336   2345   2347     1   110.1100470 384.091200
   2336   2345   2349     1   110.1100470 384.091200
   2337   2336   2339     1   110.5600475 386.601600
   2337   2336   2345     1   108.0100461 406.684800
   2337   2336   2338     1   109.7500473 328.025600
   2338   2336   2339     1   110.5600475 386.601600
   2338   2336   2345     1   108.0100461 406.684800
   2339   2342   2343     1   109.5600471 388.275200
   2339   2342   2344     1   109.5600471 388.275200
   2340   2339   2342     1   109.8000471 387.438400
   2340   2339   2341     1   107.5800459 329.699200
   2341   2339   2342     1   109.8000471 387.438400
   2343   2342   2348     1   109.7800468 425.094400
   2343   2342   2344     1   108.4600466 328.025600
   2344   2342   2348     1   109.7800468 425.094400
   2346   2345   2347     1   108.3000464 339.740800
   2346   2345   2349     1   108.3000464 339.740800
   2347   2345   2349     1   108.3000464 339.740800
   2350   2353   2354     1   109.8000471 387.438400
   2350   2353   2355     1   109.8000471 387.438400
   2350   2359   2360     1   110.1100470 384.091200
   2350   2359   2361     1   110.1100470 384.091200
   2350   2359   2363     1   110.1100470 384.091200
   2351   2350   2353     1   110.5600475 386.601600
   2351   2350   2359     1   108.0100461 406.684800
   2351   2350   2352     1   109.7500473 328.025600
   2352   2350   2353     1   110.5600475 386.601600
   2352   2350   2359     1   108.0100461 406.684800
   2353   2356   2357     1   109.5600471 388.275200
   2353   2356   2358     1   109.5600471 388.275200
   2354   2353   2356     1   109.8000471 387.438400
   2354   2353   2355     1   107.5800459 329.699200
   2355   2353   2356     1   109.8000471 387.438400
   2357   2356   2362     1   109.7800468 425.094400
   2357   2356   2358     1   108.4600466 328.025600
   2358   2356   2362     1   109.7800468 425.094400
   2360   2359   2361     1   108.3000464 339.740800
   2360   2359   2363     1   108.3000464 339.740800
   2361   2359   2363     1   108.3000464 339.740800
   2364   2367   2368     1   109.8000471 387.438400
   2364   2367   2369     1   109.8000471 387.438400
   2364   2373   2374     1   110.1100470 384.091200
   2364   2373   2375     1   110.1100470 384.091200
   2364   2373   2377     1   110.1100470 384.091200
   2365   2364   2367     1   110.5600475 386.601600
   2365   2364   2373     1   108.0100461 406.684800
   2365   2364   2366     1   109.7500473 328.025600
   2366   2364   2367     1   110.5600475 386.601600
   2366   2364   2373     1   108.0100461 406.684800
   2367   2370   2371     1   109.5600471 388.275200
   2367   2370   2372     1   109.5600471 388.275200
   2368   2367   2370     1   109.8000471 387.438400
   2368   2367   2369     1   107.5800459 329.699200
   2369   2367   2370     1   109.8000471 387.438400
   2371   2370   2376     1   109.7800468 425.094400
   2371   2370   2372     1   108.4600466 328.025600
   2372   2370   2376     1   109.7800468 425.094400
   2374   2373   2375     1   108.3000464 339.740800
   2374   2373   2377     1   108.3000464 339.740800
   2375   2373   2377     1   108.3000464 339.740800
   2378   2381   2382     1   109.8000471 387.438400
   2378   2381   2383     1   109.8000471 387.438400
   2378   2387   2388     1   110.1100470 384.091200
   2378   2387   2389     1   110.1100470 384.091200
   2378   2387   2391     1   110.1100470 384.091200
   2379   2378   2381     1   110.5600475 386.601600
   2379   2378   2387     1   108.0100461 406.684800
   2379   2378   2380     1   109.7500473 328.025600
   2380   2378   2381     1   110.5600475 386.601600
   2380   2378   2387     1   108.0100461 406.684800
   2381   2384   2385     1   109.5600471 388.275200
   2381   2384   2386     1   109.5600471 388.275200
   2382   2381   2384     1   109.8000471 387.438400
   2382   2381   2383     1   107.5800459 329.699200
   2383   2381   2384     1   109.8000471 387.438400
   2385   2384   2390     1   109.7800468 425.094400
   2385   2384   2386     1   108.4600466 328.025600
   2386   2384   2390     1   109.7800468 425.094400
   2388   2387   2389     1   108.3000464 339.740800
   2388   2387   2391     1   108.3000464 339.740800
   2389   2387   2391     1   108.3000464 339.740800
   2392   2395   2396     1   109.8000471 387.438400
   2392   2395   2397     1   109.8000471 387.438400
   2392   2401   2402     1   110.1100470 384.091200
   2392   2401   2403     1   110.1100470 384.091200
   2392   2401   2405     1   110.1100470 384.091200
   2393   2392   2395     1   110.5600475 386.601600
   2393   2392   2401     1   108.0100461 406.684800
   2393   2392   2394     1   109.7500473 328.025600
   2394   2392   2395     1   110.5600475 386.601600
   2394   2392   2401     1   108.0100461 406.684800
   2395   2398   2399     1   109.5600471 388.275200
   2395   2398   2400     1   109.5600471 388.275200
   2396   2395   2398     1   109.8000471 387.438400
   2396   2395   2397     1   107.5800459 329.699200
   2397   2395   2398     1   109.8000471 387.438400
   2399   2398   2404     1   109.7800468 425.094400
   2399   2398   2400     1   108.4600466 328.025600
   2400   2398   2404     1   109.7800468 425.094400
   2402   2401   2403     1   108.3000464 339.740800
   2402   2401   2405     1   108.3000464 339.740800
   2403   2401   2405     1   108.3000464 339.740800
   2406   2409   2410     1   109.8000471 387.438400
   2406   2409   2411     1   109.8000471 387.438400
   2406   2415   2416     1   110.1100470 384.091200
   2406   2415   2417     1   110.1100470 384.091200
   2406   2415   2419     1   110.1100470 384.091200
   2407   2406   2409     1   110.5600475 386.601600
   2407   2406   2415     1   108.0100461 406.684800
   2407   2406   2408     1   109.7500473 328.025600
   2408   2406   2409     1   110.5600475 386.601600
   2408   2406   2415     1   108.0100461 406.684800
   2409   2412   2413     1   109.5600471 388.275200
   2409   2412   2414     1   109.5600471 388.275200
   2410   2409   2412     1   109.8000471 387.438400
   2410   2409   2411     1   107.5800459 329.699200
   2411   2409   2412     1   109.8000471 387.438400
   2413   2412   2418     1   109.7800468 425.094400
   2413   2412   2414     1   108.4600466 328.025600
   2414   2412   2418     1   109.7800468 425.094400
   2416   2415   2417     1   108.3000464 339.740800
   2416   2415   2419     1   108.3000464 339.740800
   2417   2415   2419     1   108.3000464 339.740800
   2420   2423   2424     1   109.8000471 387.438400
   2420   2423   2425     1   109.8000471 387.438400
   2420   2429   2430     1   110.1100470 384.091200
   2420   2429   2431     1   110.1100470 384.091200
   2420   2429   2433     1   110.1100470 384.091200
   2421   2420   2423     1   110.5600475 386.601600
   2421   2420   2429     1   108.0100461 406.684800
   2421   2420   2422     1   109.7500473 328.025600
   2422   2420   2423     1   110.5600475 386.601600
   2422   2420   2429     1   108.0100461 406.684800
   2423   2426   2427     1   109.5600471 388.275200
   2423   2426   2428     1   109.5600471 388.275200
   2424   2423   2426     1   109.8000471 387.438400
   2424   2423   2425     1   107.5800459 329.699200
   2425   2423   2426     1   109.8000471 387.438400
   2427   2426   2432     1   109.7800468 425.094400
   2427   2426   2428     1   108.4600466 328.025600
   2428   2426   2432     1   109.7800468 425.094400
   2430   2429   2431     1   108.3000464 339.740800
   2430   2429   2433     1   108.3000464 339.740800
   2431   2429   2433     1   108.3000464 339.740800
   2434   2437   2438     1   109.8000471 387.438400
   2434   2437   2439     1   109.8000471 387.438400
   2434   2443   2444     1   110.1100470 384.091200
   2434   2443   2445     1   110.1100470 384.091200
   2434   2443   2447     1   110.1100470 384.091200
   2435   2434   2437     1   110.5600475 386.601600
   2435   2434   2443     1   108.0100461 406.684800
   2435   2434   2436     1   109.7500473 328.025600
   2436   2434   2437     1   110.5600475 386.601600
   2436   2434   2443     1   108.0100461 406.684800
   2437   2440   2441     1   109.5600471 388.275200
   2437   2440   2442     1   109.5600471 388.275200
   2438   2437   2440     1   109.8000471 387.438400
   2438   2437   2439     1   107.5800459 329.699200
   2439   2437   2440     1   109.8000471 387.438400
   2441   2440   2446     1   109.7800468 425.094400
   2441   2440   2442     1   108.4600466 328.025600
   2442   2440   2446     1   109.7800468 425.094400
   2444   2443   2445     1   108.3000464 339.740800
   2444   2443   2447     1   108.3000464 339.740800
   2445   2443   2447     1   108.3000464 339.740800
   2448   2451   2452     1   109.8000471 387.438400
   2448   2451   2453     1   109.8000471 387.438400
   2448   2457   2458     1   110.1100470 384.091200
   2448   2457   2459     1   110.1100470 384.091200
   2448   2457   2461     1   110.1100470 384.091200
   2449   2448   2451     1   110.5600475 386.601600
   2449   2448   2457     1   108.0100461 406.684800
   2449   2448   2450     1   109.7500473 328.025600
   2450   2448   2451     1   110.5600475 386.601600
   2450   2448   2457     1   108.0100461 406.684800
   2451   2454   2455     1   109.5600471 388.275200
   2451   2454   2456     1   109.5600471 388.275200
   2452   2451   2454     1   109.8000471 387.438400
   2452   2451   2453     1   107.5800459 329.699200
   2453   2451   2454     1   109.8000471 387.438400
   2455   2454   2460     1   109.7800468 425.094400
   2455   2454   2456     1   108.4600466 328.025600
   2456   2454   2460     1   109.7800468 425.094400
   2458   2457   2459     1   108.3000464 339.740800
   2458   2457   2461     1   108.3000464 339.740800
   2459   2457   2461     1   108.3000464 339.740800
   2462   2465   2466     1   109.8000471 387.438400
   2462   2465   2467     1   109.8000471 387.438400
   2462   2471   2472     1   110.1100470 384.091200
   2462   2471   2473     1   110.1100470 384.091200
   2462   2471   2475     1   110.1100470 384.091200
   2463   2462   2465     1   110.5600475 386.601600
   2463   2462   2471     1   108.0100461 406.684800
   2463   2462   2464     1   109.7500473 328.025600
   2464   2462   2465     1   110.5600475 386.601600
   2464   2462   2471     1   108.0100461 406.684800
   2465   2468   2469     1   109.5600471 388.275200
   2465   2468   2470     1   109.5600471 388.275200
   2466   2465   2468     1   109.8000471 387.438400
   2466   2465   2467     1   107.5800459 329.699200
   2467   2465   2468     1   109.8000471 387.438400
   2469   2468   2474     1   109.7800468 425.094400
   2469   2468   2470     1   108.4600466 328.025600
   2470   2468   2474     1   109.7800468 425.094400
   2472   2471   2473     1   108.3000464 339.740800
   2472   2471   2475     1   108.3000464 339.740800
   2473   2471   2475     1   108.3000464 339.740800
   2476   2479   2480     1   109.8000471 387.438400
   2476   2479   2481     1   109.8000471 387.438400
   2476   2485   2486     1   110.1100470 384.091200
   2476   2485   2487     1   110.1100470 384.091200
   2476   2485   2489     1   110.1100470 384.091200
   2477   2476   2479     1   110.5600475 386.601600
   2477   2476   2485     1   108.0100461 406.684800
   2477   2476   2478     1   109.7500473 328.025600
   2478   2476   2479     1   110.5600475 386.601600
   2478   2476   2485     1   108.0100461 406.684800
   2479   2482   2483     1   109.5600471 388.275200
   2479   2482   2484     1   109.5600471 388.275200
   2480   2479   2482     1   109.8000471 387.438400
   2480   2479   2481     1   107.5800459 329.699200
   2481   2479   2482     1   109.8000471 387.438400
   2483   2482   2488     1   109.7800468 425.094400
   2483   2482   2484     1   108.4600466 328.025600
   2484   2482   2488     1   109.7800468 425.094400
   2486   2485   2487     1   108.3000464 339.740800
   2486   2485   2489     1   108.3000464 339.740800
   2487   2485   2489     1   108.3000464 339.740800
   2490   2493   2494     1   109.8000471 387.438400
   2490   2493   2495     1   109.8000471 387.438400
   2490   2499   2500     1   110.1100470 384.091200
   2490   2499   2501     1   110.1100470 384.091200
   2490   2499   2503     1   110.1100470 384.091200
   2491   2490   2493     1   110.5600475 386.601600
   2491   2490   2499     1   108.0100461 406.684800
   2491   2490   2492     1   109.7500473 328.025600
   2492   2490   2493     1   110.5600475 386.601600
   2492   2490   2499     1   108.0100461 406.684800
   2493   2496   2497     1   109.5600471 388.275200
   2493   2496   2498     1   109.5600471 388.275200
   2494   2493   2496     1   109.8000471 387.438400
   2494   2493   2495     1   107.5800459 329.699200
   2495   2493   2496     1   109.8000471 387.438400
   2497   2496   2502     1   109.7800468 425.094400
   2497   2496   2498     1   108.4600466 328.025600
   2498   2496   2502     1   109.7800468 425.094400
   2500   2499   2501     1   108.3000464 339.740800
   2500   2499   2503     1   108.3000464 339.740800
   2501   2499   2503     1   108.3000464 339.740800
   2504   2507   2508     1   109.8000471 387.438400
   2504   2507   2509     1   109.8000471 387.438400
   2504   2513   2514     1   110.1100470 384.091200
   2504   2513   2515     1   110.1100470 384.091200
   2504   2513   2517     1   110.1100470 384.091200
   2505   2504   2507     1   110.5600475 386.601600
   2505   2504   2513     1   108.0100461 406.684800
   2505   2504   2506     1   109.7500473 328.025600
   2506   2504   2507     1   110.5600475 386.601600
   2506   2504   2513     1   108.0100461 406.684800
   2507   2510   2511     1   109.5600471 388.275200
   2507   2510   2512     1   109.5600471 388.275200
   2508   2507   2510     1   109.8000471 387.438400
   2508   2507   2509     1   107.5800459 329.699200
   2509   2507   2510     1   109.8000471 387.438400
   2511   2510   2516     1   109.7800468 425.094400
   2511   2510   2512     1   108.4600466 328.025600
   2512   2510   2516     1   109.7800468 425.094400
   2514   2513   2515     1   108.3000464 339.740800
   2514   2513   2517     1   108.3000464 339.740800
   2515   2513   2517     1   108.3000464 339.740800
   2518   2521   2522     1   109.8000471 387.438400
   2518   2521   2523     1   109.8000471 387.438400
   2518   2527   2528     1   110.1100470 384.091200
   2518   2527   2529     1   110.1100470 384.091200
   2518   2527   2531     1   110.1100470 384.091200
   2519   2518   2521     1   110.5600475 386.601600
   2519   2518   2527     1   108.0100461 406.684800
   2519   2518   2520     1   109.7500473 328.025600
   2520   2518   2521     1   110.5600475 386.601600
   2520   2518   2527     1   108.0100461 406.684800
   2521   2524   2525     1   109.5600471 388.275200
   2521   2524   2526     1   109.5600471 388.275200
   2522   2521   2524     1   109.8000471 387.438400
   2522   2521   2523     1   107.5800459 329.699200
   2523   2521   2524     1   109.8000471 387.438400
   2525   2524   2530     1   109.7800468 425.094400
   2525   2524   2526     1   108.4600466 328.025600
   2526   2524   2530     1   109.7800468 425.094400
   2528   2527   2529     1   108.3000464 339.740800
   2528   2527   2531     1   108.3000464 339.740800
   2529   2527   2531     1   108.3000464 339.740800
   2532   2535   2536     1   109.8000471 387.438400
   2532   2535   2537     1   109.8000471 387.438400
   2532   2541   2542     1   110.1100470 384.091200
   2532   2541   2543     1   110.1100470 384.091200
   2532   2541   2545     1   110.1100470 384.091200
   2533   2532   2535     1   110.5600475 386.601600
   2533   2532   2541     1   108.0100461 406.684800
   2533   2532   2534     1   109.7500473 328.025600
   2534   2532   2535     1   110.5600475 386.601600
   2534   2532   2541     1   108.0100461 406.684800
   2535   2538   2539     1   109.5600471 388.275200
   2535   2538   2540     1   109.5600471 388.275200
   2536   2535   2538     1   109.8000471 387.438400
   2536   2535   2537     1   107.5800459 329.699200
   2537   2535   2538     1   109.8000471 387.438400
   2539   2538   2544     1   109.7800468 425.094400
   2539   2538   2540     1   108.4600466 328.025600
   2540   2538   2544     1   109.7800468 425.094400
   2542   2541   2543     1   108.3000464 339.740800
   2542   2541   2545     1   108.3000464 339.740800
   2543   2541   2545     1   108.3000464 339.740800
   2546   2549   2550     1   109.8000471 387.438400
   2546   2549   2551     1   109.8000471 387.438400
   2546   2555   2556     1   110.1100470 384.091200
   2546   2555   2557     1   110.1100470 384.091200
   2546   2555   2559     1   110.1100470 384.091200
   2547   2546   2549     1   110.5600475 386.601600
   2547   2546   2555     1   108.0100461 406.684800
   2547   2546   2548     1   109.7500473 328.025600
   2548   2546   2549     1   110.5600475 386.601600
   2548   2546   2555     1   108.0100461 406.684800
   2549   2552   2553     1   109.5600471 388.275200
   2549   2552   2554     1   109.5600471 388.275200
   2550   2549   2552     1   109.8000471 387.438400
   2550   2549   2551     1   107.5800459 329.699200
   2551   2549   2552     1   109.8000471 387.438400
   2553   2552   2558     1   109.7800468 425.094400
   2553   2552   2554     1   108.4600466 328.025600
   2554   2552   2558     1   109.7800468 425.094400
   2556   2555   2557     1   108.3000464 339.740800
   2556   2555   2559     1   108.3000464 339.740800
   2557   2555   2559     1   108.3000464 339.740800
   2560   2563   2564     1   109.8000471 387.438400
   2560   2563   2565     1   109.8000471 387.438400
   2560   2569   2570     1   110.1100470 384.091200
   2560   2569   2571     1   110.1100470 384.091200
   2560   2569   2573     1   110.1100470 384.091200
   2561   2560   2563     1   110.5600475 386.601600
   2561   2560   2569     1   108.0100461 406.684800
   2561   2560   2562     1   109.7500473 328.025600
   2562   2560   2563     1   110.5600475 386.601600
   2562   2560   2569     1   108.0100461 406.684800
   2563   2566   2567     1   109.5600471 388.275200
   2563   2566   2568     1   109.5600471 388.275200
   2564   2563   2566     1   109.8000471 387.438400
   2564   2563   2565     1   107.5800459 329.699200
   2565   2563   2566     1   109.8000471 387.438400
   2567   2566   2572     1   109.7800468 425.094400
   2567   2566   2568     1   108.4600466 328.025600
   2568   2566   2572     1   109.7800468 425.094400
   2570   2569   2571     1   108.3000464 339.740800
   2570   2569   2573     1   108.3000464 339.740800
   2571   2569   2573     1   108.3000464 339.740800
   2574   2577   2578     1   109.8000471 387.438400
   2574   2577   2579     1   109.8000471 387.438400
   2574   2583   2584     1   110.1100470 384.091200
   2574   2583   2585     1   110.1100470 384.091200
   2574   2583   2587     1   110.1100470 384.091200
   2575   2574   2577     1   110.5600475 386.601600
   2575   2574   2583     1   108.0100461 406.684800
   2575   2574   2576     1   109.7500473 328.025600
   2576   2574   2577     1   110.5600475 386.601600
   2576   2574   2583     1   108.0100461 406.684800
   2577   2580   2581     1   109.5600471 388.275200
   2577   2580   2582     1   109.5600471 388.275200
   2578   2577   2580     1   109.8000471 387.438400
   2578   2577   2579     1   107.5800459 329.699200
   2579   2577   2580     1   109.8000471 387.438400
   2581   2580   2586     1   109.7800468 425.094400
   2581   2580   2582     1   108.4600466 328.025600
   2582   2580   2586     1   109.7800468 425.094400
   2584   2583   2585     1   108.3000464 339.740800
   2584   2583   2587     1   108.3000464 339.740800
   2585   2583   2587     1   108.3000464 339.740800
   2588   2591   2592     1   109.8000471 387.438400
   2588   2591   2593     1   109.8000471 387.438400
   2588   2597   2598     1   110.1100470 384.091200
   2588   2597   2599     1   110.1100470 384.091200
   2588   2597   2601     1   110.1100470 384.091200
   2589   2588   2591     1   110.5600475 386.601600
   2589   2588   2597     1   108.0100461 406.684800
   2589   2588   2590     1   109.7500473 328.025600
   2590   2588   2591     1   110.5600475 386.601600
   2590   2588   2597     1   108.0100461 406.684800
   2591   2594   2595     1   109.5600471 388.275200
   2591   2594   2596     1   109.5600471 388.275200
   2592   2591   2594     1   109.8000471 387.438400
   2592   2591   2593     1   107.5800459 329.699200
   2593   2591   2594     1   109.8000471 387.438400
   2595   2594   2600     1   109.7800468 425.094400
   2595   2594   2596     1   108.4600466 328.025600
   2596   2594   2600     1   109.7800468 425.094400
   2598   2597   2599     1   108.3000464 339.740800
   2598   2597   2601     1   108.3000464 339.740800
   2599   2597   2601     1   108.3000464 339.740800
   2602   2605   2606     1   109.8000471 387.438400
   2602   2605   2607     1   109.8000471 387.438400
   2602   2611   2612     1   110.1100470 384.091200
   2602   2611   2613     1   110.1100470 384.091200
   2602   2611   2615     1   110.1100470 384.091200
   2603   2602   2605     1   110.5600475 386.601600
   2603   2602   2611     1   108.0100461 406.684800
   2603   2602   2604     1   109.7500473 328.025600
   2604   2602   2605     1   110.5600475 386.601600
   2604   2602   2611     1   108.0100461 406.684800
   2605   2608   2609     1   109.5600471 388.275200
   2605   2608   2610     1   109.5600471 388.275200
   2606   2605   2608     1   109.8000471 387.438400
   2606   2605   2607     1   107.5800459 329.699200
   2607   2605   2608     1   109.8000471 387.438400
   2609   2608   2614     1   109.7800468 425.094400
   2609   2608   2610     1   108.4600466 328.025600
   2610   2608   2614     1   109.7800468 425.094400
   2612   2611   2613     1   108.3000464 339.740800
   2612   2611   2615     1   108.3000464 339.740800
   2613   2611   2615     1   108.3000464 339.740800
   2616   2619   2620     1   109.8000471 387.438400
   2616   2619   2621     1   109.8000471 387.438400
   2616   2625   2626     1   110.1100470 384.091200
   2616   2625   2627     1   110.1100470 384.091200
   2616   2625   2629     1   110.1100470 384.091200
   2617   2616   2619     1   110.5600475 386.601600
   2617   2616   2625     1   108.0100461 406.684800
   2617   2616   2618     1   109.7500473 328.025600
   2618   2616   2619     1   110.5600475 386.601600
   2618   2616   2625     1   108.0100461 406.684800
   2619   2622   2623     1   109.5600471 388.275200
   2619   2622   2624     1   109.5600471 388.275200
   2620   2619   2622     1   109.8000471 387.438400
   2620   2619   2621     1   107.5800459 329.699200
   2621   2619   2622     1   109.8000471 387.438400
   2623   2622   2628     1   109.7800468 425.094400
   2623   2622   2624     1   108.4600466 328.025600
   2624   2622   2628     1   109.7800468 425.094400
   2626   2625   2627     1   108.3000464 339.740800
   2626   2625   2629     1   108.3000464 339.740800
   2627   2625   2629     1   108.3000464 339.740800
   2630   2633   2634     1   109.8000471 387.438400
   2630   2633   2635     1   109.8000471 387.438400
   2630   2639   2640     1   110.1100470 384.091200
   2630   2639   2641     1   110.1100470 384.091200
   2630   2639   2643     1   110.1100470 384.091200
   2631   2630   2633     1   110.5600475 386.601600
   2631   2630   2639     1   108.0100461 406.684800
   2631   2630   2632     1   109.7500473 328.025600
   2632   2630   2633     1   110.5600475 386.601600
   2632   2630   2639     1   108.0100461 406.684800
   2633   2636   2637     1   109.5600471 388.275200
   2633   2636   2638     1   109.5600471 388.275200
   2634   2633   2636     1   109.8000471 387.438400
   2634   2633   2635     1   107.5800459 329.699200
   2635   2633   2636     1   109.8000471 387.438400
   2637   2636   2642     1   109.7800468 425.094400
   2637   2636   2638     1   108.4600466 328.025600
   2638   2636   2642     1   109.7800468 425.094400
   2640   2639   2641     1   108.3000464 339.740800
   2640   2639   2643     1   108.3000464 339.740800
   2641   2639   2643     1   108.3000464 339.740800
   2644   2647   2648     1   109.8000471 387.438400
   2644   2647   2649     1   109.8000471 387.438400
   2644   2653   2654     1   110.1100470 384.091200
   2644   2653   2655     1   110.1100470 384.091200
   2644   2653   2657     1   110.1100470 384.091200
   2645   2644   2647     1   110.5600475 386.601600
   2645   2644   2653     1   108.0100461 406.684800
   2645   2644   2646     1   109.7500473 328.025600
   2646   2644   2647     1   110.5600475 386.601600
   2646   2644   2653     1   108.0100461 406.684800
   2647   2650   2651     1   109.5600471 388.275200
   2647   2650   2652     1   109.5600471 388.275200
   2648   2647   2650     1   109.8000471 387.438400
   2648   2647   2649     1   107.5800459 329.699200
   2649   2647   2650     1   109.8000471 387.438400
   2651   2650   2656     1   109.7800468 425.094400
   2651   2650   2652     1   108.4600466 328.025600
   2652   2650   2656     1   109.7800468 425.094400
   2654   2653   2655     1   108.3000464 339.740800
   2654   2653   2657     1   108.3000464 339.740800
   2655   2653   2657     1   108.3000464 339.740800
   2658   2661   2662     1   109.8000471 387.438400
   2658   2661   2663     1   109.8000471 387.438400
   2658   2667   2668     1   110.1100470 384.091200
   2658   2667   2669     1   110.1100470 384.091200
   2658   2667   2671     1   110.1100470 384.091200
   2659   2658   2661     1   110.5600475 386.601600
   2659   2658   2667     1   108.0100461 406.684800
   2659   2658   2660     1   109.7500473 328.025600
   2660   2658   2661     1   110.5600475 386.601600
   2660   2658   2667     1   108.0100461 406.684800
   2661   2664   2665     1   109.5600471 388.275200
   2661   2664   2666     1   109.5600471 388.275200
   2662   2661   2664     1   109.8000471 387.438400
   2662   2661   2663     1   107.5800459 329.699200
   2663   2661   2664     1   109.8000471 387.438400
   2665   2664   2670     1   109.7800468 425.094400
   2665   2664   2666     1   108.4600466 328.025600
   2666   2664   2670     1   109.7800468 425.094400
   2668   2667   2669     1   108.3000464 339.740800
   2668   2667   2671     1   108.3000464 339.740800
   2669   2667   2671     1   108.3000464 339.740800
   2672   2675   2676     1   109.8000471 387.438400
   2672   2675   2677     1   109.8000471 387.438400
   2672   2681   2682     1   110.1100470 384.091200
   2672   2681   2683     1   110.1100470 384.091200
   2672   2681   2685     1   110.1100470 384.091200
   2673   2672   2675     1   110.5600475 386.601600
   2673   2672   2681     1   108.0100461 406.684800
   2673   2672   2674     1   109.7500473 328.025600
   2674   2672   2675     1   110.5600475 386.601600
   2674   2672   2681     1   108.0100461 406.684800
   2675   2678   2679     1   109.5600471 388.275200
   2675   2678   2680     1   109.5600471 388.275200
   2676   2675   2678     1   109.8000471 387.438400
   2676   2675   2677     1   107.5800459 329.699200
   2677   2675   2678     1   109.8000471 387.438400
   2679   2678   2684     1   109.7800468 425.094400
   2679   2678   2680     1   108.4600466 328.025600
   2680   2678   2684     1   109.7800468 425.094400
   2682   2681   2683     1   108.3000464 339.740800
   2682   2681   2685     1   108.3000464 339.740800
   2683   2681   2685     1   108.3000464 339.740800
   2686   2689   2690     1   109.8000471 387.438400
   2686   2689   2691     1   109.8000471 387.438400
   2686   2695   2696     1   110.1100470 384.091200
   2686   2695   2697     1   110.1100470 384.091200
   2686   2695   2699     1   110.1100470 384.091200
   2687   2686   2689     1   110.5600475 386.601600
   2687   2686   2695     1   108.0100461 406.684800
   2687   2686   2688     1   109.7500473 328.025600
   2688   2686   2689     1   110.5600475 386.601600
   2688   2686   2695     1   108.0100461 406.684800
   2689   2692   2693     1   109.5600471 388.275200
   2689   2692   2694     1   109.5600471 388.275200
   2690   2689   2692     1   109.8000471 387.438400
   2690   2689   2691     1   107.5800459 329.699200
   2691   2689   2692     1   109.8000471 387.438400
   2693   2692   2698     1   109.7800468 425.094400
   2693   2692   2694     1   108.4600466 328.025600
   2694   2692   2698     1   109.7800468 425.094400
   2696   2695   2697     1   108.3000464 339.740800
   2696   2695   2699     1   108.3000464 339.740800
   2697   2695   2699     1   108.3000464 339.740800
   2700   2703   2704     1   109.8000471 387.438400
   2700   2703   2705     1   109.8000471 387.438400
   2700   2709   2710     1   110.1100470 384.091200
   2700   2709   2711     1   110.1100470 384.091200
   2700   2709   2713     1   110.1100470 384.091200
   2701   2700   2703     1   110.5600475 386.601600
   2701   2700   2709     1   108.0100461 406.684800
   2701   2700   2702     1   109.7500473 328.025600
   2702   2700   2703     1   110.5600475 386.601600
   2702   2700   2709     1   108.0100461 406.684800
   2703   2706   2707     1   109.5600471 388.275200
   2703   2706   2708     1   109.5600471 388.275200
   2704   2703   2706     1   109.8000471 387.438400
   2704   2703   2705     1   107.5800459 329.699200
   2705   2703   2706     1   109.8000471 387.438400
   2707   2706   2712     1   109.7800468 425.094400
   2707   2706   2708     1   108.4600466 328.025600
   2708   2706   2712     1   109.7800468 425.094400
   2710   2709   2711     1   108.3000464 339.740800
   2710   2709   2713     1   108.3000464 339.740800
   2711   2709   2713     1   108.3000464 339.740800
   2714   2717   2718     1   109.8000471 387.438400
   2714   2717   2719     1   109.8000471 387.438400
   2714   2723   2724     1   110.1100470 384.091200
   2714   2723   2725     1   110.1100470 384.091200
   2714   2723   2727     1   110.1100470 384.091200
   2715   2714   2717     1   110.5600475 386.601600
   2715   2714   2723     1   108.0100461 406.684800
   2715   2714   2716     1   109.7500473 328.025600
   2716   2714   2717     1   110.5600475 386.601600
   2716   2714   2723     1   108.0100461 406.684800
   2717   2720   2721     1   109.5600471 388.275200
   2717   2720   2722     1   109.5600471 388.275200
   2718   2717   2720     1   109.8000471 387.438400
   2718   2717   2719     1   107.5800459 329.699200
   2719   2717   2720     1   109.8000471 387.438400
   2721   2720   2726     1   109.7800468 425.094400
   2721   2720   2722     1   108.4600466 328.025600
   2722   2720   2726     1   109.7800468 425.094400
   2724   2723   2725     1   108.3000464 339.740800
   2724   2723   2727     1   108.3000464 339.740800
   2725   2723   2727     1   108.3000464 339.740800
   2728   2731   2732     1   109.8000471 387.438400
   2728   2731   2733     1   109.8000471 387.438400
   2728   2737   2738     1   110.1100470 384.091200
   2728   2737   2739     1   110.1100470 384.091200
   2728   2737   2741     1   110.1100470 384.091200
   2729   2728   2731     1   110.5600475 386.601600
   2729   2728   2737     1   108.0100461 406.684800
   2729   2728   2730     1   109.7500473 328.025600
   2730   2728   2731     1   110.5600475 386.601600
   2730   2728   2737     1   108.0100461 406.684800
   2731   2734   2735     1   109.5600471 388.275200
   2731   2734   2736     1   109.5600471 388.275200
   2732   2731   2734     1   109.8000471 387.438400
   2732   2731   2733     1   107.5800459 329.699200
   2733   2731   2734     1   109.8000471 387.438400
   2735   2734   2740     1   109.7800468 425.094400
   2735   2734   2736     1   108.4600466 328.025600
   2736   2734   2740     1   109.7800468 425.094400
   2738   2737   2739     1   108.3000464 339.740800
   2738   2737   2741     1   108.3000464 339.740800
   2739   2737   2741     1   108.3000464 339.740800
   2742   2745   2746     1   109.8000471 387.438400
   2742   2745   2747     1   109.8000471 387.438400
   2742   2751   2752     1   110.1100470 384.091200
   2742   2751   2753     1   110.1100470 384.091200
   2742   2751   2755     1   110.1100470 384.091200
   2743   2742   2745     1   110.5600475 386.601600
   2743   2742   2751     1   108.0100461 406.684800
   2743   2742   2744     1   109.7500473 328.025600
   2744   2742   2745     1   110.5600475 386.601600
   2744   2742   2751     1   108.0100461 406.684800
   2745   2748   2749     1   109.5600471 388.275200
   2745   2748   2750     1   109.5600471 388.275200
   2746   2745   2748     1   109.8000471 387.438400
   2746   2745   2747     1   107.5800459 329.699200
   2747   2745   2748     1   109.8000471 387.438400
   2749   2748   2754     1   109.7800468 425.094400
   2749   2748   2750     1   108.4600466 328.025600
   2750   2748   2754     1   109.7800468 425.094400
   2752   2751   2753     1   108.3000464 339.740800
   2752   2751   2755     1   108.3000464 339.740800
   2753   2751   2755     1   108.3000464 339.740800

[ dihedrals ]
;    ai     aj     ak     al funct         c0         c1         c2         c3         c4         c5
      1      2      8     14     1  0.0000000  0.6508444  3
      1      5     11     17     1  0.0000000  0.6508444  3
      2      1      5     11     1  180.0000771  0.4184000  2
      2      1      5     11     1  0.0000000  1.6024720  3
      2      8     14     20     1  0.0000000  0.6508444  3
      5      1      2      8     1  180.0000771  0.4184000  2
      5      1      2      8     1  0.0000000  1.6024720  3
      5     11     17     21     1  0.0000000  0.6508444  3
      8     14     20     28     1  0.0000000  0.6508444  3
      8     14     20     31     1  0.0000000  0.6508444  3
     11     17     21     22     1  0.0000000  0.6508444  3
     11     17     21     25     1  0.0000000  0.6508444  3
     14     20     28     40     1  0.0000000  0.6508444  3
     14     20     31     43     1  0.0000000  0.6508444  3
     17     21     22     34     1  0.0000000  0.6508444  3
     17     21     25     37     1  0.0000000  0.6508444  3
     20     28     40     49     1  0.0000000  0.6508444  3
     20     31     43     46     1  0.0000000  0.6508444  3
     21     22     34     55     1  0.0000000  0.6508444  3
     21     25     37     52     1  0.0000000  0.6508444  3
     22     21     25     37     1  0.0000000  0.6508444  3
     22     34     55    178     1  0.0000000  0.6508444  3
     25     21     22     34     1  0.0000000  0.6508444  3
     25     37     52    148     1  0.0000000  0.6508444  3
     28     20     31     43     1  0.0000000  0.6508444  3
     28     40     49    118     1  0.0000000  0.6508444  3
     31     20     28     40     1  0.0000000  0.6508444  3
     31     43     46     88     1  0.0000000  0.6508444  3
     34     55    178    169     1  180.0000771  0.4184000  2
     34     55    178    169     1  0.0000000  1.6024720  3
     37     52    148    139     1  180.0000771  0.4184000  2
     37     52    148    139     1  0.0000000  1.6024720  3
     40     49    118    109     1  180.0000771  0.4184000  2
     40     49    118    109     1  0.0000000  1.6024720  3
     43     46     88     79     1  180.0000771  0.4184000  2
     43     46     88     79     1  0.0000000  1.6024720  3
     46     88     79     70     1  180.0000771  0.4184000  2
     46     88     79     70     1  0.0000000  1.6024720  3
     49    118    109    100     1  180.0000771  0.4184000  2
     49    118    109    100     1  0.0000000  1.6024720  3
     52    148    139    130     1  180.0000771  0.4184000  2
     52    148    139    130     1  0.0000000  1.6024720  3
     55    178    169    160     1  180.0000771  0.4184000  2
     55    178    169    160     1  0.0000000  1.6024720  3
     60     61     73     85     1  0.0000000  0.6508444  3
     60     64     76     82     1  0.0000000  0.6508444  3
     60     67     70     79     1  0.0000000  0.6508444  3
     61     60     64     76     1  0.0000000  0.6508444  3
     61     60     67     70     1  0.0000000  0.6508444  3
     61     73     85    238     1  0.0000000  0.6508444  3
     64     60     61     73     1  0.0000000  0.6508444  3
     64     60     67     70     1  0.0000000  0.6508444  3
     64     76     82    208     1  0.0000000  0.6508444  3
     67     60     61     73     1  0.0000000  0.6508444  3
     67     60     64     76     1  0.0000000  0.6508444  3
     67     70     79     88     1  0.0000000  0.6508444  3
     73     85    238    229     1  180.0000771  0.4184000  2
     73     85    238    229     1  0.0000000  1.6024720  3
     76     82    208    199     1  180.0000771  0.4184000  2
     76     82    208    199     1  0.0000000  1.6024720  3
     82    208    199    190     1  180.0000771  0.4184000  2
     82    208    199    190     1  0.0000000  1.6024720  3
     85    238    229    220     1  180.0000771  0.4184000  2
     85    238    229    220     1  0.0000000  1.6024720  3
     90     91    103    115     1  0.0000000  0.6508444  3
     90     94    106    112     1  0.0000000  0.6508444  3
     90     97    100    109     1  0.0000000  0.6508444  3
     91     90     94    106     1  0.0000000  0.6508444  3
     91     90     97    100     1  0.0000000  0.6508444  3
     91    103    115    298     1  0.0000000  0.6508444  3
     94     90     91    103     1  0.0000000  0.6508444  3
     94     90     97    100     1  0.0000000  0.6508444  3
     94    106    112    268     1  0.0000000  0.6508444  3
     97     90     91    103     1  0.0000000  0.6508444  3
     97     90     94    106     1  0.0000000  0.6508444  3
     97    100    109    118     1  0.0000000  0.6508444  3
    103    115    298    289     1  180.0000771  0.4184000  2
    103    115    298    289     1  0.0000000  1.6024720  3
    106    112    268    259     1  180.0000771  0.4184000  2
    106    112    268    259     1  0.0000000  1.6024720  3
    112    268    259    250     1  180.0000771  0.4184000  2
    112    268    259    250     1  0.0000000  1.6024720  3
    115    298    289    280     1  180.0000771  0.4184000  2
    115    298    289    280     1  0.0000000  1.6024720  3
    120    121    133    145     1  0.0000000  0.6508444  3
    120    124    136    142     1  0.0000000  0.6508444  3
    120    127    130    139     1  0.0000000  0.6508444  3
    121    120    124    136     1  0.0000000  0.6508444  3
    121    120    127    130     1  0.0000000  0.6508444  3
    121    133    145    358     1  0.0000000  0.6508444  3
    124    120    121    133     1  0.0000000  0.6508444  3
    124    120    127    130     1  0.0000000  0.6508444  3
    124    136    142    328     1  0.0000000  0.6508444  3
    127    120    121    133     1  0.0000000  0.6508444  3
    127    120    124    136     1  0.0000000  0.6508444  3
    127    130    139    148     1  0.0000000  0.6508444  3
    133    145    358    349     1  180.0000771  0.4184000  2
    133    145    358    349     1  0.0000000  1.6024720  3
    136    142    328    319     1  180.0000771  0.4184000  2
    136    142    328    319     1  0.0000000  1.6024720  3
    142    328    319    310     1  180.0000771  0.4184000  2
    142    328    319    310     1  0.0000000  1.6024720  3
    145    358    349    340     1  180.0000771  0.4184000  2
    145    358    349    340     1  0.0000000  1.6024720  3
    150    151    163    175     1  0.0000000  0.6508444  3
    150    154    166    172     1  0.0000000  0.6508444  3
    150    157    160    169     1  0.0000000  0.6508444  3
    151    150    154    166     1  0.0000000  0.6508444  3
    151    150    157    160     1  0.0000000  0.6508444  3
    151    163    175    418     1  0.0000000  0.6508444  3
    154    150    151    163     1  0.0000000  0.6508444  3
    154    150    157    160     1  0.0000000  0.6508444  3
    154    166    172    388     1  0.0000000  0.6508444  3
    157    150    151    163     1  0.0000000  0.6508444  3
    157    150    154    166     1  0.0000000  0.6508444  3
    157    160    169    178     1  0.0000000  0.6508444  3
    163    175    418    409     1  180.0000771  0.4184000  2
    163    175    418    409     1  0.0000000  1.6024720  3
    166    172    388    379     1  180.0000771  0.4184000  2
    166    172    388    379     1  0.0000000  1.6024720  3
    172    388    379    370     1  180.0000771  0.4184000  2
    172    388    379    370     1  0.0000000  1.6024720  3
    175    418    409    400     1  180.0000771  0.4184000  2
    175    418    409    400     1  0.0000000  1.6024720  3
    180    181    193    205     1  0.0000000  0.6508444  3
    180    184    196    202     1  0.0000000  0.6508444  3
    180    187    190    199     1  0.0000000  0.6508444  3
    181    180    184    196     1  0.0000000  0.6508444  3
    181    180    187    190     1  0.0000000  0.6508444  3
    181    193    205    478     1  0.0000000  0.6508444  3
    184    180    181    193     1  0.0000000  0.6508444  3
    184    180    187    190     1  0.0000000  0.6508444  3
    184    196    202    448     1  0.0000000  0.6508444  3
    187    180    181    193     1  0.0000000  0.6508444  3
    187    180    184    196     1  0.0000000  0.6508444  3
    187    190    199    208     1  0.0000000  0.6508444  3
    193    205    478    469     1  180.0000771  0.4184000  2
    193    205    478    469     1  0.0000000  1.6024720  3
    196    202    448    439     1  180.0000771  0.4184000  2
    196    202    448    439     1  0.0000000  1.6024720  3
    202    448    439    430     1  180.0000771  0.4184000  2
    202    448    439    430     1  0.0000000  1.6024720  3
    205    478    469    460     1  180.0000771  0.4184000  2
    205    478    469    460     1  0.0000000  1.6024720  3
    210    211    223    235     1  0.0000000  0.6508444  3
    210    214    226    232     1  0.0000000  0.6508444  3
    210    217    220    229     1  0.0000000  0.6508444  3
    211    210    214    226     1  0.0000000  0.6508444  3
    211    210    217    220     1  0.0000000  0.6508444  3
    211    223    235    538     1  0.0000000  0.6508444  3
    214    210    211    223     1  0.0000000  0.6508444  3
    214    210    217    220     1  0.0000000  0.6508444  3
    214    226    232    508     1  0.0000000  0.6508444  3
    217    210    211    223     1  0.0000000  0.6508444  3
    217    210    214    226     1  0.0000000  0.6508444  3
    217    220    229    238     1  0.0000000  0.6508444  3
    223    235    538    529     1  180.0000771  0.4184000  2
    223    235    538    529     1  0.0000000  1.6024720  3
    226    232    508    499     1  180.0000771  0.4184000  2
    226    232    508    499     1  0.0000000  1.6024720  3
    232    508    499    490     1  180.0000771  0.4184000  2
    232    508    499    490     1  0.0000000  1.6024720  3
    235    538    529    520     1  180.0000771  0.4184000  2
    235    538    529    520     1  0.0000000  1.6024720  3
    240    241    253    265     1  0.0000000  0.6508444  3
    240    244    256    262     1  0.0000000  0.6508444  3
    240    247    250    259     1  0.0000000  0.6508444  3
    241    240    244    256     1  0.0000000  0.6508444  3
    241    240    247    250     1  0.0000000  0.6508444  3
    241    253    265    598     1  0.0000000  0.6508444  3
    244    240    241    253     1  0.0000000  0.6508444  3
    244    240    247    250     1  0.0000000  0.6508444  3
    244    256    262    568     1  0.0000000  0.6508444  3
    247    240    241    253     1  0.0000000  0.6508444  3
    247    240    244    256     1  0.0000000  0.6508444  3
    247    250    259    268     1  0.0000000  0.6508444  3
    253    265    598    589     1  180.0000771  0.4184000  2
    253    265    598    589     1  0.0000000  1.6024720  3
    256    262    568    559     1  180.0000771  0.4184000  2
    256    262    568    559     1  0.0000000  1.6024720  3
    262    568    559    550     1  180.0000771  0.4184000  2
    262    568    559    550     1  0.0000000  1.6024720  3
    265    598    589    580     1  180.0000771  0.4184000  2
    265    598    589    580     1  0.0000000  1.6024720  3
    270    271    283    295     1  0.0000000  0.6508444  3
    270    274    286    292     1  0.0000000  0.6508444  3
    270    277    280    289     1  0.0000000  0.6508444  3
    271    270    274    286     1  0.0000000  0.6508444  3
    271    270    277    280     1  0.0000000  0.6508444  3
    271    283    295    658     1  0.0000000  0.6508444  3
    274    270    271    283     1  0.0000000  0.6508444  3
    274    270    277    280     1  0.0000000  0.6508444  3
    274    286    292    628     1  0.0000000  0.6508444  3
    277    270    271    283     1  0.0000000  0.6508444  3
    277    270    274    286     1  0.0000000  0.6508444  3
    277    280    289    298     1  0.0000000  0.6508444  3
    283    295    658    649     1  180.0000771  0.4184000  2
    283    295    658    649     1  0.0000000  1.6024720  3
    286    292    628    619     1  180.0000771  0.4184000  2
    286    292    628    619     1  0.0000000  1.6024720  3
    292    628    619    610     1  180.0000771  0.4184000  2
    292    628    619    610     1  0.0000000  1.6024720  3
    295    658    649    640     1  180.0000771  0.4184000  2
    295    658    649    640     1  0.0000000  1.6024720  3
    300    301    313    325     1  0.0000000  0.6508444  3
    300    304    316    322     1  0.0000000  0.6508444  3
    300    307    310    319     1  0.0000000  0.6508444  3
    301    300    304    316     1  0.0000000  0.6508444  3
    301    300    307    310     1  0.0000000  0.6508444  3
    301    313    325    718     1  0.0000000  0.6508444  3
    304    300    301    313     1  0.0000000  0.6508444  3
    304    300    307    310     1  0.0000000  0.6508444  3
    304    316    322    688     1  0.0000000  0.6508444  3
    307    300    301    313     1  0.0000000  0.6508444  3
    307    300    304    316     1  0.0000000  0.6508444  3
    307    310    319    328     1  0.0000000  0.6508444  3
    313    325    718    709     1  180.0000771  0.4184000  2
    313    325    718    709     1  0.0000000  1.6024720  3
    316    322    688    679     1  180.0000771  0.4184000  2
    316    322    688    679     1  0.0000000  1.6024720  3
    322    688    679    670     1  180.0000771  0.4184000  2
    322    688    679    670     1  0.0000000  1.6024720  3
    325    718    709    700     1  180.0000771  0.4184000  2
    325    718    709    700     1  0.0000000  1.6024720  3
    330    331    343    355     1  0.0000000  0.6508444  3
    330    334    346    352     1  0.0000000  0.6508444  3
    330    337    340    349     1  0.0000000  0.6508444  3
    331    330    334    346     1  0.0000000  0.6508444  3
    331    330    337    340     1  0.0000000  0.6508444  3
    331    343    355    778     1  0.0000000  0.6508444  3
    334    330    331    343     1  0.0000000  0.6508444  3
    334    330    337    340     1  0.0000000  0.6508444  3
    334    346    352    748     1  0.0000000  0.6508444  3
    337    330    331    343     1  0.0000000  0.6508444  3
    337    330    334    346     1  0.0000000  0.6508444  3
    337    340    349    358     1  0.0000000  0.6508444  3
    343    355    778    769     1  180.0000771  0.4184000  2
    343    355    778    769     1  0.0000000  1.6024720  3
    346    352    748    739     1  180.0000771  0.4184000  2
    346    352    748    739     1  0.0000000  1.6024720  3
    352    748    739    730     1  180.0000771  0.4184000  2
    352    748    739    730     1  0.0000000  1.6024720  3
    355    778    769    760     1  180.0000771  0.4184000  2
    355    778    769    760     1  0.0000000  1.6024720  3
    360    361    373    385     1  0.0000000  0.6508444  3
    360    364    376    382     1  0.0000000  0.6508444  3
    360    367    370    379     1  0.0000000  0.6508444  3
    361    360    364    376     1  0.0000000  0.6508444  3
    361    360    367    370     1  0.0000000  0.6508444  3
    361    373    385    838     1  0.0000000  0.6508444  3
    364    360    361    373     1  0.0000000  0.6508444  3
    364    360    367    370     1  0.0000000  0.6508444  3
    364    376    382    808     1  0.0000000  0.6508444  3
    367    360    361    373     1  0.0000000  0.6508444  3
    367    360    364    376     1  0.0000000  0.6508444  3
    367    370    379    388     1  0.0000000  0.6508444  3
    373    385    838    829     1  180.0000771  0.4184000  2
    373    385    838    829     1  0.0000000  1.6024720  3
    376    382    808    799     1  180.0000771  0.4184000  2
    376    382    808    799     1  0.0000000  1.6024720  3
    382    808    799    790     1  180.0000771  0.4184000  2
    382    808    799    790     1  0.0000000  1.6024720  3
    385    838    829    820     1  180.0000771  0.4184000  2
    385    838    829    820     1  0.0000000  1.6024720  3
    390    391    403    415     1  0.0000000  0.6508444  3
    390    394    406    412     1  0.0000000  0.6508444  3
    390    397    400    409     1  0.0000000  0.6508444  3
    391    390    394    406     1  0.0000000  0.6508444  3
    391    390    397    400     1  0.0000000  0.6508444  3
    391    403    415    898     1  0.0000000  0.6508444  3
    394    390    391    403     1  0.0000000  0.6508444  3
    394    390    397    400     1  0.0000000  0.6508444  3
    394    406    412    868     1  0.0000000  0.6508444  3
    397    390    391    403     1  0.0000000  0.6508444  3
    397    390    394    406     1  0.0000000  0.6508444  3
    397    400    409    418     1  0.0000000  0.6508444  3
    403    415    898    889     1  180.0000771  0.4184000  2
    403    415    898    889     1  0.0000000  1.6024720  3
    406    412    868    859     1  180.0000771  0.4184000  2
    406    412    868    859     1  0.0000000  1.6024720  3
    412    868    859    850     1  180.0000771  0.4184000  2
    412    868    859    850     1  0.0000000  1.6024720  3
    415    898    889    880     1  180.0000771  0.4184000  2
    415    898    889    880     1  0.0000000  1.6024720  3
    420    421    433    445     1  0.0000000  0.6508444  3
    420    424    436    442     1  0.0000000  0.6508444  3
    420    427    430    439     1  0.0000000  0.6508444  3
    421    420    424    436     1  0.0000000  0.6508444  3
    421    420    427    430     1  0.0000000  0.6508444  3
    421    433    445    958     1  0.0000000  0.6508444  3
    424    420    421    433     1  0.0000000  0.6508444  3
    424    420    427    430     1  0.0000000  0.6508444  3
    424    436    442    928     1  0.0000000  0.6508444  3
    427    420    421    433     1  0.0000000  0.6508444  3
    427    420    424    436     1  0.0000000  0.6508444  3
    427    430    439    448     1  0.0000000  0.6508444  3
    433    445    958    949     1  180.0000771  0.4184000  2
    433    445    958    949     1  0.0000000  1.6024720  3
    436    442    928    919     1  180.0000771  0.4184000  2
    436    442    928    919     1  0.0000000  1.6024720  3
    442    928    919    910     1  180.0000771  0.4184000  2
    442    928    919    910     1  0.0000000  1.6024720  3
    445    958    949    940     1  180.0000771  0.4184000  2
    445    958    949    940     1  0.0000000  1.6024720  3
    450    451    463    475     1  0.0000000  0.6508444  3
    450    454    466    472     1  0.0000000  0.6508444  3
    450    457    460    469     1  0.0000000  0.6508444  3
    451    450    454    466     1  0.0000000  0.6508444  3
    451    450    457    460     1  0.0000000  0.6508444  3
    451    463    475   1018     1  0.0000000  0.6508444  3
    454    450    451    463     1  0.0000000  0.6508444  3
    454    450    457    460     1  0.0000000  0.6508444  3
    454    466    472    988     1  0.0000000  0.6508444  3
    457    450    451    463     1  0.0000000  0.6508444  3
    457    450    454    466     1  0.0000000  0.6508444  3
    457    460    469    478     1  0.0000000  0.6508444  3
    463    475   1018   1009     1  180.0000771  0.4184000  2
    463    475   1018   1009     1  0.0000000  1.6024720  3
    466    472    988    979     1  180.0000771  0.4184000  2
    466    472    988    979     1  0.0000000  1.6024720  3
    472    988    979    970     1  180.0000771  0.4184000  2
    472    988    979    970     1  0.0000000  1.6024720  3
    475   1018   1009   1000     1  180.0000771  0.4184000  2
    475   1018   1009   1000     1  0.0000000  1.6024720  3
    480    481    493    505     1  0.0000000  0.6508444  3
    480    484    496    502     1  0.0000000  0.6508444  3
    480    487    490    499     1  0.0000000  0.6508444  3
    481    480    484    496     1  0.0000000  0.6508444  3
    481    480    487    490     1  0.0000000  0.6508444  3
    481    493    505   1078     1  0.0000000  0.6508444  3
    484    480    481    493     1  0.0000000  0.6508444  3
    484    480    487    490     1  0.0000000  0.6508444  3
    484    496    502   1048     1  0.0000000  0.6508444  3
    487    480    481    493     1  0.0000000  0.6508444  3
    487    480    484    496     1  0.0000000  0.6508444  3
    487    490    499    508     1  0.0000000  0.6508444  3
    493    505   1078   1069     1  180.0000771  0.4184000  2
    493    505   1078   1069     1  0.0000000  1.6024720  3
    496    502   1048   1039     1  180.0000771  0.4184000  2
    496    502   1048   1039     1  0.0000000  1.6024720  3
    502   1048   1039   1030     1  180.0000771  0.4184000  2
    502   1048   1039   1030     1  0.0000000  1.6024720  3
    505   1078   1069   1060     1  180.0000771  0.4184000  2
    505   1078   1069   1060     1  0.0000000  1.6024720  3
    510    511    523    535     1  0.0000000  0.6508444  3
    510    514    526    532     1  0.0000000  0.6508444  3
    510    517    520    529     1  0.0000000  0.6508444  3
    511    510    514    526     1  0.0000000  0.6508444  3
    511    510    517    520     1  0.0000000  0.6508444  3
    511    523    535   1138     1  0.0000000  0.6508444  3
    514    510    511    523     1  0.0000000  0.6508444  3
    514    510    517    520     1  0.0000000  0.6508444  3
    514    526    532   1108     1  0.0000000  0.6508444  3
    517    510    511    523     1  0.0000000  0.6508444  3
    517    510    514    526     1  0.0000000  0.6508444  3
    517    520    529    538     1  0.0000000  0.6508444  3
    523    535   1138   1129     1  180.0000771  0.4184000  2
    523    535   1138   1129     1  0.0000000  1.6024720  3
    526    532   1108   1099     1  180.0000771  0.4184000  2
    526    532   1108   1099     1  0.0000000  1.6024720  3
    532   1108   1099   1090     1  180.0000771  0.4184000  2
    532   1108   1099   1090     1  0.0000000  1.6024720  3
    535   1138   1129   1120     1  180.0000771  0.4184000  2
    535   1138   1129   1120     1  0.0000000  1.6024720  3
    540    541    553    565     1  0.0000000  0.6508444  3
    540    544    556    562     1  0.0000000  0.6508444  3
    540    547    550    559     1  0.0000000  0.6508444  3
    541    540    544    556     1  0.0000000  0.6508444  3
    541    540    547    550     1  0.0000000  0.6508444  3
    541    553    565   1198     1  0.0000000  0.6508444  3
    544    540    541    553     1  0.0000000  0.6508444  3
    544    540    547    550     1  0.0000000  0.6508444  3
    544    556    562   1168     1  0.0000000  0.6508444  3
    547    540    541    553     1  0.0000000  0.6508444  3
    547    540    544    556     1  0.0000000  0.6508444  3
    547    550    559    568     1  0.0000000  0.6508444  3
    553    565   1198   1189     1  180.0000771  0.4184000  2
    553    565   1198   1189     1  0.0000000  1.6024720  3
    556    562   1168   1159     1  180.0000771  0.4184000  2
    556    562   1168   1159     1  0.0000000  1.6024720  3
    562   1168   1159   1150     1  180.0000771  0.4184000  2
    562   1168   1159   1150     1  0.0000000  1.6024720  3
    565   1198   1189   1180     1  180.0000771  0.4184000  2
    565   1198   1189   1180     1  0.0000000  1.6024720  3
    570    571    583    595     1  0.0000000  0.6508444  3
    570    574    586    592     1  0.0000000  0.6508444  3
    570    577    580    589     1  0.0000000  0.6508444  3
    571    570    574    586     1  0.0000000  0.6508444  3
    571    570    577    580     1  0.0000000  0.6508444  3
    571    583    595   1258     1  0.0000000  0.6508444  3
    574    570    571    583     1  0.0000000  0.6508444  3
    574    570    577    580     1  0.0000000  0.6508444  3
    574    586    592   1228     1  0.0000000  0.6508444  3
    577    570    571    583     1  0.0000000  0.6508444  3
    577    570    574    586     1  0.0000000  0.6508444  3
    577    580    589    598     1  0.0000000  0.6508444  3
    583    595   1258   1249     1  180.0000771  0.4184000  2
    583    595   1258   1249     1  0.0000000  1.6024720  3
    586    592   1228   1219     1  180.0000771  0.4184000  2
    586    592   1228   1219     1  0.0000000  1.6024720  3
    592   1228   1219   1210     1  180.0000771  0.4184000  2
    592   1228   1219   1210     1  0.0000000  1.6024720  3
    595   1258   1249   1240     1  180.0000771  0.4184000  2
    595   1258   1249   1240     1  0.0000000  1.6024720  3
    600    601    613    625     1  0.0000000  0.6508444  3
    600    604    616    622     1  0.0000000  0.6508444  3
    600    607    610    619     1  0.0000000  0.6508444  3
    601    600    604    616     1  0.0000000  0.6508444  3
    601    600    607    610     1  0.0000000  0.6508444  3
    601    613    625   1318     1  0.0000000  0.6508444  3
    604    600    601    613     1  0.0000000  0.6508444  3
    604    600    607    610     1  0.0000000  0.6508444  3
    604    616    622   1288     1  0.0000000  0.6508444  3
    607    600    601    613     1  0.0000000  0.6508444  3
    607    600    604    616     1  0.0000000  0.6508444  3
    607    610    619    628     1  0.0000000  0.6508444  3
    613    625   1318   1309     1  180.0000771  0.4184000  2
    613    625   1318   1309     1  0.0000000  1.6024720  3
    616    622   1288   1279     1  180.0000771  0.4184000  2
    616    622   1288   1279     1  0.0000000  1.6024720  3
    622   1288   1279   1270     1  180.0000771  0.4184000  2
    622   1288   1279   1270     1  0.0000000  1.6024720  3
    625   1318   1309   1300     1  180.0000771  0.4184000  2
    625   1318   1309   1300     1  0.0000000  1.6024720  3
    630    631    643    655     1  0.0000000  0.6508444  3
    630    634    646    652     1  0.0000000  0.6508444  3
    630    637    640    649     1  0.0000000  0.6508444  3
    631    630    634    646     1  0.0000000  0.6508444  3
    631    630    637    640     1  0.0000000  0.6508444  3
    631    643    655   1378     1  0.0000000  0.6508444  3
    634    630    631    643     1  0.0000000  0.6508444  3
    634    630    637    640     1  0.0000000  0.6508444  3
    634    646    652   1348     1  0.0000000  0.6508444  3
    637    630    631    643     1  0.0000000  0.6508444  3
    637    630    634    646     1  0.0000000  0.6508444  3
    637    640    649    658     1  0.0000000  0.6508444  3
    643    655   1378   1369     1  180.0000771  0.4184000  2
    643    655   1378   1369     1  0.0000000  1.6024720  3
    646    652   1348   1339     1  180.0000771  0.4184000  2
    646    652   1348   1339     1  0.0000000  1.6024720  3
    652   1348   1339   1330     1  180.0000771  0.4184000  2
    652   1348   1339   1330     1  0.0000000  1.6024720  3
    655   1378   1369   1360     1  180.0000771  0.4184000  2
    655   1378   1369   1360     1  0.0000000  1.6024720  3
    660    661    673    685     1  0.0000000  0.6508444  3
    660    664    676    682     1  0.0000000  0.6508444  3
    660    667    670    679     1  0.0000000  0.6508444  3
    661    660    664    676     1  0.0000000  0.6508444  3
    661    660    667    670     1  0.0000000  0.6508444  3
    661    673    685   1438     1  0.0000000  0.6508444  3
    664    660    661    673     1  0.0000000  0.6508444  3
    664    660    667    670     1  0.0000000  0.6508444  3
    664    676    682   1408     1  0.0000000  0.6508444  3
    667    660    661    673     1  0.0000000  0.6508444  3
    667    660    664    676     1  0.0000000  0.6508444  3
    667    670    679    688     1  0.0000000  0.6508444  3
    673    685   1438   1429     1  180.0000771  0.4184000  2
    673    685   1438   1429     1  0.0000000  1.6024720  3
    676    682   1408   1399     1  180.0000771  0.4184000  2
    676    682   1408   1399     1  0.0000000  1.6024720  3
    682   1408   1399   1390     1  180.0000771  0.4184000  2
    682   1408   1399   1390     1  0.0000000  1.6024720  3
    685   1438   1429   1420     1  180.0000771  0.4184000  2
    685   1438   1429   1420     1  0.0000000  1.6024720  3
    690    691    703    715     1  0.0000000  0.6508444  3
    690    694    706    712     1  0.0000000  0.6508444  3
    690    697    700    709     1  0.0000000  0.6508444  3
    691    690    694    706     1  0.0000000  0.6508444  3
    691    690    697    700     1  0.0000000  0.6508444  3
    691    703    715   1498     1  0.0000000  0.6508444  3
    694    690    691    703     1  0.0000000  0.6508444  3
    694    690    697    700     1  0.0000000  0.6508444  3
    694    706    712   1468     1  0.0000000  0.6508444  3
    697    690    691    703     1  0.0000000  0.6508444  3
    697    690    694    706     1  0.0000000  0.6508444  3
    697    700    709    718     1  0.0000000  0.6508444  3
    703    715   1498   1489     1  180.0000771  0.4184000  2
    703    715   1498   1489     1  0.0000000  1.6024720  3
    706    712   1468   1459     1  180.0000771  0.4184000  2
    706    712   1468   1459     1  0.0000000  1.6024720  3
    712   1468   1459   1450     1  180.0000771  0.4184000  2
    712   1468   1459   1450     1  0.0000000  1.6024720  3
    715   1498   1489   1480     1  180.0000771  0.4184000  2
    715   1498   1489   1480     1  0.0000000  1.6024720  3
    720    721    733    745     1  0.0000000  0.6508444  3
    720    724    736    742     1  0.0000000  0.6508444  3
    720    727    730    739     1  0.0000000  0.6508444  3
    721    720    724    736     1  0.0000000  0.6508444  3
    721    720    727    730     1  0.0000000  0.6508444  3
    721    733    745   1558     1  0.0000000  0.6508444  3
    724    720    721    733     1  0.0000000  0.6508444  3
    724    720    727    730     1  0.0000000  0.6508444  3
    724    736    742   1528     1  0.0000000  0.6508444  3
    727    720    721    733     1  0.0000000  0.6508444  3
    727    720    724    736     1  0.0000000  0.6508444  3
    727    730    739    748     1  0.0000000  0.6508444  3
    733    745   1558   1549     1  180.0000771  0.4184000  2
    733    745   1558   1549     1  0.0000000  1.6024720  3
    736    742   1528   1519     1  180.0000771  0.4184000  2
    736    742   1528   1519     1  0.0000000  1.6024720  3
    742   1528   1519   1510     1  180.0000771  0.4184000  2
    742   1528   1519   1510     1  0.0000000  1.6024720  3
    745   1558   1549   1540     1  180.0000771  0.4184000  2
    745   1558   1549   1540     1  0.0000000  1.6024720  3
    750    751    763    775     1  0.0000000  0.6508444  3
    750    754    766    772     1  0.0000000  0.6508444  3
    750    757    760    769     1  0.0000000  0.6508444  3
    751    750    754    766     1  0.0000000  0.6508444  3
    751    750    757    760     1  0.0000000  0.6508444  3
    751    763    775   1618     1  0.0000000  0.6508444  3
    754    750    751    763     1  0.0000000  0.6508444  3
    754    750    757    760     1  0.0000000  0.6508444  3
    754    766    772   1588     1  0.0000000  0.6508444  3
    757    750    751    763     1  0.0000000  0.6508444  3
    757    750    754    766     1  0.0000000  0.6508444  3
    757    760    769    778     1  0.0000000  0.6508444  3
    763    775   1618   1609     1  180.0000771  0.4184000  2
    763    775   1618   1609     1  0.0000000  1.6024720  3
    766    772   1588   1579     1  180.0000771  0.4184000  2
    766    772   1588   1579     1  0.0000000  1.6024720  3
    772   1588   1579   1570     1  180.0000771  0.4184000  2
    772   1588   1579   1570     1  0.0000000  1.6024720  3
    775   1618   1609   1600     1  180.0000771  0.4184000  2
    775   1618   1609   1600     1  0.0000000  1.6024720  3
    780    781    793    805     1  0.0000000  0.6508444  3
    780    784    796    802     1  0.0000000  0.6508444  3
    780    787    790    799     1  0.0000000  0.6508444  3
    781    780    784    796     1  0.0000000  0.6508444  3
    781    780    787    790     1  0.0000000  0.6508444  3
    781    793    805   1678     1  0.0000000  0.6508444  3
    784    780    781    793     1  0.0000000  0.6508444  3
    784    780    787    790     1  0.0000000  0.6508444  3
    784    796    802   1648     1  0.0000000  0.6508444  3
    787    780    781    793     1  0.0000000  0.6508444  3
    787    780    784    796     1  0.0000000  0.6508444  3
    787    790    799    808     1  0.0000000  0.6508444  3
    793    805   1678   1669     1  180.0000771  0.4184000  2
    793    805   1678   1669     1  0.0000000  1.6024720  3
    796    802   1648   1639     1  180.0000771  0.4184000  2
    796    802   1648   1639     1  0.0000000  1.6024720  3
    802   1648   1639   1630     1  180.0000771  0.4184000  2
    802   1648   1639   1630     1  0.0000000  1.6024720  3
    805   1678   1669   1660     1  180.0000771  0.4184000  2
    805   1678   1669   1660     1  0.0000000  1.6024720  3
    810    811    823    835     1  0.0000000  0.6508444  3
    810    814    826    832     1  0.0000000  0.6508444  3
    810    817    820    829     1  0.0000000  0.6508444  3
    811    810    814    826     1  0.0000000  0.6508444  3
    811    810    817    820     1  0.0000000  0.6508444  3
    811    823    835   1738     1  0.0000000  0.6508444  3
    814    810    811    823     1  0.0000000  0.6508444  3
    814    810    817    820     1  0.0000000  0.6508444  3
    814    826    832   1708     1  0.0000000  0.6508444  3
    817    810    811    823     1  0.0000000  0.6508444  3
    817    810    814    826     1  0.0000000  0.6508444  3
    817    820    829    838     1  0.0000000  0.6508444  3
    823    835   1738   1729     1  180.0000771  0.4184000  2
    823    835   1738   1729     1  0.0000000  1.6024720  3
    826    832   1708   1699     1  180.0000771  0.4184000  2
    826    832   1708   1699     1  0.0000000  1.6024720  3
    832   1708   1699   1690     1  180.0000771  0.4184000  2
    832   1708   1699   1690     1  0.0000000  1.6024720  3
    835   1738   1729   1720     1  180.0000771  0.4184000  2
    835   1738   1729   1720     1  0.0000000  1.6024720  3
    840    841    853    865     1  0.0000000  0.6508444  3
    840    844    856    862     1  0.0000000  0.6508444  3
    840    847    850    859     1  0.0000000  0.6508444  3
    841    840    844    856     1  0.0000000  0.6508444  3
    841    840    847    850     1  0.0000000  0.6508444  3
    841    853    865   1798     1  0.0000000  0.6508444  3
    844    840    841    853     1  0.0000000  0.6508444  3
    844    840    847    850     1  0.0000000  0.6508444  3
    844    856    862   1768     1  0.0000000  0.6508444  3
    847    840    841    853     1  0.0000000  0.6508444  3
    847    840    844    856     1  0.0000000  0.6508444  3
    847    850    859    868     1  0.0000000  0.6508444  3
    853    865   1798   1789     1  180.0000771  0.4184000  2
    853    865   1798   1789     1  0.0000000  1.6024720  3
    856    862   1768   1759     1  180.0000771  0.4184000  2
    856    862   1768   1759     1  0.0000000  1.6024720  3
    862   1768   1759   1750     1  180.0000771  0.4184000  2
    862   1768   1759   1750     1  0.0000000  1.6024720  3
    865   1798   1789   1780     1  180.0000771  0.4184000  2
    865   1798   1789   1780     1  0.0000000  1.6024720  3
    870    871    883    895     1  0.0000000  0.6508444  3
    870    874    886    892     1  0.0000000  0.6508444  3
    870    877    880    889     1  0.0000000  0.6508444  3
    871    870    874    886     1  0.0000000  0.6508444  3
    871    870    877    880     1  0.0000000  0.6508444  3
    871    883    895   1858     1  0.0000000  0.6508444  3
    874    870    871    883     1  0.0000000  0.6508444  3
    874    870    877    880     1  0.0000000  0.6508444  3
    874    886    892   1828     1  0.0000000  0.6508444  3
    877    870    871    883     1  0.0000000  0.6508444  3
    877    870    874    886     1  0.0000000  0.6508444  3
    877    880    889    898     1  0.0000000  0.6508444  3
    883    895   1858   1849     1  180.0000771  0.4184000  2
    883    895   1858   1849     1  0.0000000  1.6024720  3
    886    892   1828   1819     1  180.0000771  0.4184000  2
    886    892   1828   1819     1  0.0000000  1.6024720  3
    892   1828   1819   1810     1  180.0000771  0.4184000  2
    892   1828   1819   1810     1  0.0000000  1.6024720  3
    895   1858   1849   1840     1  180.0000771  0.4184000  2
    895   1858   1849   1840     1  0.0000000  1.6024720  3
    900    901    913    925     1  0.0000000  0.6508444  3
    900    904    916    922     1  0.0000000  0.6508444  3
    900    907    910    919     1  0.0000000  0.6508444  3
    901    900    904    916     1  0.0000000  0.6508444  3
    901    900    907    910     1  0.0000000  0.6508444  3
    901    913    925   1886     1  0.0000000  0.6508444  3
    904    900    901    913     1  0.0000000  0.6508444  3
    904    900    907    910     1  0.0000000  0.6508444  3
    904    916    922   1872     1  0.0000000  0.6508444  3
    907    900    901    913     1  0.0000000  0.6508444  3
    907    900    904    916     1  0.0000000  0.6508444  3
    907    910    919    928     1  0.0000000  0.6508444  3
    913    925   1886   1880     1  180.0000771  0.4184000  2
    913    925   1886   1880     1  0.0000000  1.6024720  3
    916    922   1872   1866     1  180.0000771  0.4184000  2
    916    922   1872   1866     1  0.0000000  1.6024720  3
    922   1872   1866   1863     1  180.0000771  0.4184000  2
    922   1872   1866   1863     1  0.0000000  1.6024720  3
    925   1886   1880   1877     1  180.0000771  0.4184000  2
    925   1886   1880   1877     1  0.0000000  1.6024720  3
    930    931    943    955     1  0.0000000  0.6508444  3
    930    934    946    952     1  0.0000000  0.6508444  3
    930    937    940    949     1  0.0000000  0.6508444  3
    931    930    934    946     1  0.0000000  0.6508444  3
    931    930    937    940     1  0.0000000  0.6508444  3
    931    943    955   1914     1  0.0000000  0.6508444  3
    934    930    931    943     1  0.0000000  0.6508444  3
    934    930    937    940     1  0.0000000  0.6508444  3
    934    946    952   1900     1  0.0000000  0.6508444  3
    937    930    931    943     1  0.0000000  0.6508444  3
    937    930    934    946     1  0.0000000  0.6508444  3
    937    940    949    958     1  0.0000000  0.6508444  3
    943    955   1914   1908     1  180.0000771  0.4184000  2
    943    955   1914   1908     1  0.0000000  1.6024720  3
    946    952   1900   1894     1  180.0000771  0.4184000  2
    946    952   1900   1894     1  0.0000000  1.6024720  3
    952   1900   1894   1891     1  180.0000771  0.4184000  2
    952   1900   1894   1891     1  0.0000000  1.6024720  3
    955   1914   1908   1905     1  180.0000771  0.4184000  2
    955   1914   1908   1905     1  0.0000000  1.6024720  3
    960    961    973    985     1  0.0000000  0.6508444  3
    960    964    976    982     1  0.0000000  0.6508444  3
    960    967    970    979     1  0.0000000  0.6508444  3
    961    960    964    976     1  0.0000000  0.6508444  3
    961    960    967    970     1  0.0000000  0.6508444  3
    961    973    985   1942     1  0.0000000  0.6508444  3
    964    960    961    973     1  0.0000000  0.6508444  3
    964    960    967    970     1  0.0000000  0.6508444  3
    964    976    982   1928     1  0.0000000  0.6508444  3
    967    960    961    973     1  0.0000000  0.6508444  3
    967    960    964    976     1  0.0000000  0.6508444  3
    967    970    979    988     1  0.0000000  0.6508444  3
    973    985   1942   1936     1  180.0000771  0.4184000  2
    973    985   1942   1936     1  0.0000000  1.6024720  3
    976    982   1928   1922     1  180.0000771  0.4184000  2
    976    982   1928   1922     1  0.0000000  1.6024720  3
    982   1928   1922   1919     1  180.0000771  0.4184000  2
    982   1928   1922   1919     1  0.0000000  1.6024720  3
    985   1942   1936   1933     1  180.0000771  0.4184000  2
    985   1942   1936   1933     1  0.0000000  1.6024720  3
    990    991   1003   1015     1  0.0000000  0.6508444  3
    990    994   1006   1012     1  0.0000000  0.6508444  3
    990    997   1000   1009     1  0.0000000  0.6508444  3
    991    990    994   1006     1  0.0000000  0.6508444  3
    991    990    997   1000     1  0.0000000  0.6508444  3
    991   1003   1015   1970     1  0.0000000  0.6508444  3
    994    990    991   1003     1  0.0000000  0.6508444  3
    994    990    997   1000     1  0.0000000  0.6508444  3
    994   1006   1012   1956     1  0.0000000  0.6508444  3
    997    990    991   1003     1  0.0000000  0.6508444  3
    997    990    994   1006     1  0.0000000  0.6508444  3
    997   1000   1009   1018     1  0.0000000  0.6508444  3
   1003   1015   1970   1964     1  180.0000771  0.4184000  2
   1003   1015   1970   1964     1  0.0000000  1.6024720  3
   1006   1012   1956   1950     1  180.0000771  0.4184000  2
   1006   1012   1956   1950     1  0.0000000  1.6024720  3
   1012   1956   1950   1947     1  180.0000771  0.4184000  2
   1012   1956   1950   1947     1  0.0000000  1.6024720  3
   1015   1970   1964   1961     1  180.0000771  0.4184000  2
   1015   1970   1964   1961     1  0.0000000  1.6024720  3
   1020   1021   1033   1045     1  0.0000000  0.6508444  3
   1020   1024   1036   1042     1  0.0000000  0.6508444  3
   1020   1027   1030   1039     1  0.0000000  0.6508444  3
   1021   1020   1024   1036     1  0.0000000  0.6508444  3
   1021   1020   1027   1030     1  0.0000000  0.6508444  3
   1021   1033   1045   1998     1  0.0000000  0.6508444  3
   1024   1020   1021   1033     1  0.0000000  0.6508444  3
   1024   1020   1027   1030     1  0.0000000  0.6508444  3
   1024   1036   1042   1984     1  0.0000000  0.6508444  3
   1027   1020   1021   1033     1  0.0000000  0.6508444  3
   1027   1020   1024   1036     1  0.0000000  0.6508444  3
   1027   1030   1039   1048     1  0.0000000  0.6508444  3
   1033   1045   1998   1992     1  180.0000771  0.4184000  2
   1033   1045   1998   1992     1  0.0000000  1.6024720  3
   1036   1042   1984   1978     1  180.0000771  0.4184000  2
   1036   1042   1984   1978     1  0.0000000  1.6024720  3
   1042   1984   1978   1975     1  180.0000771  0.4184000  2
   1042   1984   1978   1975     1  0.0000000  1.6024720  3
   1045   1998   1992   1989     1  180.0000771  0.4184000  2
   1045   1998   1992   1989     1  0.0000000  1.6024720  3
   1050   1051   1063   1075     1  0.0000000  0.6508444  3
   1050   1054   1066   1072     1  0.0000000  0.6508444  3
   1050   1057   1060   1069     1  0.0000000  0.6508444  3
   1051   1050   1054   1066     1  0.0000000  0.6508444  3
   1051   1050   1057   1060     1  0.0000000  0.6508444  3
   1051   1063   1075   2026     1  0.0000000  0.6508444  3
   1054   1050   1051   1063     1  0.0000000  0.6508444  3
   1054   1050   1057   1060     1  0.0000000  0.6508444  3
   1054   1066   1072   2012     1  0.0000000  0.6508444  3
   1057   1050   1051   1063     1  0.0000000  0.6508444  3
   1057   1050   1054   1066     1  0.0000000  0.6508444  3
   1057   1060   1069   1078     1  0.0000000  0.6508444  3
   1063   1075   2026   2020     1  180.0000771  0.4184000  2
   1063   1075   2026   2020     1  0.0000000  1.6024720  3
   1066   1072   2012   2006     1  180.0000771  0.4184000  2
   1066   1072   2012   2006     1  0.0000000  1.6024720  3
   1072   2012   2006   2003     1  180.0000771  0.4184000  2
   1072   2012   2006   2003     1  0.0000000  1.6024720  3
   1075   2026   2020   2017     1  180.0000771  0.4184000  2
   1075   2026   2020   2017     1  0.0000000  1.6024720  3
   1080   1081   1093   1105     1  0.0000000  0.6508444  3
   1080   1084   1096   1102     1  0.0000000  0.6508444  3
   1080   1087   1090   1099     1  0.0000000  0.6508444  3
   1081   1080   1084   1096     1  0.0000000  0.6508444  3
   1081   1080   1087   1090     1  0.0000000  0.6508444  3
   1081   1093   1105   2054     1  0.0000000  0.6508444  3
   1084   1080   1081   1093     1  0.0000000  0.6508444  3
   1084   1080   1087   1090     1  0.0000000  0.6508444  3
   1084   1096   1102   2040     1  0.0000000  0.6508444  3
   1087   1080   1081   1093     1  0.0000000  0.6508444  3
   1087   1080   1084   1096     1  0.0000000  0.6508444  3
   1087   1090   1099   1108     1  0.0000000  0.6508444  3
   1093   1105   2054   2048     1  180.0000771  0.4184000  2
   1093   1105   2054   2048     1  0.0000000  1.6024720  3
   1096   1102   2040   2034     1  180.0000771  0.4184000  2
   1096   1102   2040   2034     1  0.0000000  1.6024720  3
   1102   2040   2034   2031     1  180.0000771  0.4184000  2
   1102   2040   2034   2031     1  0.0000000  1.6024720  3
   1105   2054   2048   2045     1  180.0000771  0.4184000  2
   1105   2054   2048   2045     1  0.0000000  1.6024720  3
   1110   1111   1123   1135     1  0.0000000  0.6508444  3
   1110   1114   1126   1132     1  0.0000000  0.6508444  3
   1110   1117   1120   1129     1  0.0000000  0.6508444  3
   1111   1110   1114   1126     1  0.0000000  0.6508444  3
   1111   1110   1117   1120     1  0.0000000  0.6508444  3
   1111   1123   1135   2082     1  0.0000000  0.6508444  3
   1114   1110   1111   1123     1  0.0000000  0.6508444  3
   1114   1110   1117   1120     1  0.0000000  0.6508444  3
   1114   1126   1132   2068     1  0.0000000  0.6508444  3
   1117   1110   1111   1123     1  0.0000000  0.6508444  3
   1117   1110   1114   1126     1  0.0000000  0.6508444  3
   1117   1120   1129   1138     1  0.0000000  0.6508444  3
   1123   1135   2082   2076     1  180.0000771  0.4184000  2
   1123   1135   2082   2076     1  0.0000000  1.6024720  3
   1126   1132   2068   2062     1  180.0000771  0.4184000  2
   1126   1132   2068   2062     1  0.0000000  1.6024720  3
   1132   2068   2062   2059     1  180.0000771  0.4184000  2
   1132   2068   2062   2059     1  0.0000000  1.6024720  3
   1135   2082   2076   2073     1  180.0000771  0.4184000  2
   1135   2082   2076   2073     1  0.0000000  1.6024720  3
   1140   1141   1153   1165     1  0.0000000  0.6508444  3
   1140   1144   1156   1162     1  0.0000000  0.6508444  3
   1140   1147   1150   1159     1  0.0000000  0.6508444  3
   1141   1140   1144   1156     1  0.0000000  0.6508444  3
   1141   1140   1147   1150     1  0.0000000  0.6508444  3
   1141   1153   1165   2110     1  0.0000000  0.6508444  3
   1144   1140   1141   1153     1  0.0000000  0.6508444  3
   1144   1140   1147   1150     1  0.0000000  0.6508444  3
   1144   1156   1162   2096     1  0.0000000  0.6508444  3
   1147   1140   1141   1153     1  0.0000000  0.6508444  3
   1147   1140   1144   1156     1  0.0000000  0.6508444  3
   1147   1150   1159   1168     1  0.0000000  0.6508444  3
   1153   1165   2110   2104     1  180.0000771  0.4184000  2
   1153   1165   2110   2104     1  0.0000000  1.6024720  3
   1156   1162   2096   2090     1  180.0000771  0.4184000  2
   1156   1162   2096   2090     1  0.0000000  1.6024720  3
   1162   2096   2090   2087     1  180.0000771  0.4184000  2
   1162   2096   2090   2087     1  0.0000000  1.6024720  3
   1165   2110   2104   2101     1  180.0000771  0.4184000  2
   1165   2110   2104   2101     1  0.0000000  1.6024720  3
   1170   1171   1183   1195     1  0.0000000  0.6508444  3
   1170   1174   1186   1192     1  0.0000000  0.6508444  3
   1170   1177   1180   1189     1  0.0000000  0.6508444  3
   1171   1170   1174   1186     1  0.0000000  0.6508444  3
   1171   1170   1177   1180     1  0.0000000  0.6508444  3
   1171   1183   1195   2138     1  0.0000000  0.6508444  3
   1174   1170   1171   1183     1  0.0000000  0.6508444  3
   1174   1170   1177   1180     1  0.0000000  0.6508444  3
   1174   1186   1192   2124     1  0.0000000  0.6508444  3
   1177   1170   1171   1183     1  0.0000000  0.6508444  3
   1177   1170   1174   1186     1  0.0000000  0.6508444  3
   1177   1180   1189   1198     1  0.0000000  0.6508444  3
   1183   1195   2138   2132     1  180.0000771  0.4184000  2
   1183   1195   2138   2132     1  0.0000000  1.6024720  3
   1186   1192   2124   2118     1  180.0000771  0.4184000  2
   1186   1192   2124   2118     1  0.0000000  1.6024720  3
   1192   2124   2118   2115     1  180.0000771  0.4184000  2
   1192   2124   2118   2115     1  0.0000000  1.6024720  3
   1195   2138   2132   2129     1  180.0000771  0.4184000  2
   1195   2138   2132   2129     1  0.0000000  1.6024720  3
   1200   1201   1213   1225     1  0.0000000  0.6508444  3
   1200   1204   1216   1222     1  0.0000000  0.6508444  3
   1200   1207   1210   1219     1  0.0000000  0.6508444  3
   1201   1200   1204   1216     1  0.0000000  0.6508444  3
   1201   1200   1207   1210     1  0.0000000  0.6508444  3
   1201   1213   1225   2166     1  0.0000000  0.6508444  3
   1204   1200   1201   1213     1  0.0000000  0.6508444  3
   1204   1200   1207   1210     1  0.0000000  0.6508444  3
   1204   1216   1222   2152     1  0.0000000  0.6508444  3
   1207   1200   1201   1213     1  0.0000000  0.6508444  3
   1207   1200   1204   1216     1  0.0000000  0.6508444  3
   1207   1210   1219   1228     1  0.0000000  0.6508444  3
   1213   1225   2166   2160     1  180.0000771  0.4184000  2
   1213   1225   2166   2160     1  0.0000000  1.6024720  3
   1216   1222   2152   2146     1  180.0000771  0.4184000  2
   1216   1222   2152   2146     1  0.0000000  1.6024720  3
   1222   2152   2146   2143     1  180.0000771  0.4184000  2
   1222   2152   2146   2143     1  0.0000000  1.6024720  3
   1225   2166   2160   2157     1  180.0000771  0.4184000  2
   1225   2166   2160   2157     1  0.0000000  1.6024720  3
   1230   1231   1243   1255     1  0.0000000  0.6508444  3
   1230   1234   1246   1252     1  0.0000000  0.6508444  3
   1230   1237   1240   1249     1  0.0000000  0.6508444  3
   1231   1230   1234   1246     1  0.0000000  0.6508444  3
   1231   1230   1237   1240     1  0.0000000  0.6508444  3
   1231   1243   1255   2194     1  0.0000000  0.6508444  3
   1234   1230   1231   1243     1  0.0000000  0.6508444  3
   1234   1230   1237   1240     1  0.0000000  0.6508444  3
   1234   1246   1252   2180     1  0.0000000  0.6508444  3
   1237   1230   1231   1243     1  0.0000000  0.6508444  3
   1237   1230   1234   1246     1  0.0000000  0.6508444  3
   1237   1240   1249   1258     1  0.0000000  0.6508444  3
   1243   1255   2194   2188     1  180.0000771  0.4184000  2
   1243   1255   2194   2188     1  0.0000000  1.6024720  3
   1246   1252   2180   2174     1  180.0000771  0.4184000  2
   1246   1252   2180   2174     1  0.0000000  1.6024720  3
   1252   2180   2174   2171     1  180.0000771  0.4184000  2
   1252   2180   2174   2171     1  0.0000000  1.6024720  3
   1255   2194   2188   2185     1  180.0000771  0.4184000  2
   1255   2194   2188   2185     1  0.0000000  1.6024720  3
   1260   1261   1273   1285     1  0.0000000  0.6508444  3
   1260   1264   1276   1282     1  0.0000000  0.6508444  3
   1260   1267   1270   1279     1  0.0000000  0.6508444  3
   1261   1260   1264   1276     1  0.0000000  0.6508444  3
   1261   1260   1267   1270     1  0.0000000  0.6508444  3
   1261   1273   1285   2222     1  0.0000000  0.6508444  3
   1264   1260   1261   1273     1  0.0000000  0.6508444  3
   1264   1260   1267   1270     1  0.0000000  0.6508444  3
   1264   1276   1282   2208     1  0.0000000  0.6508444  3
   1267   1260   1261   1273     1  0.0000000  0.6508444  3
   1267   1260   1264   1276     1  0.0000000  0.6508444  3
   1267   1270   1279   1288     1  0.0000000  0.6508444  3
   1273   1285   2222   2216     1  180.0000771  0.4184000  2
   1273   1285   2222   2216     1  0.0000000  1.6024720  3
   1276   1282   2208   2202     1  180.0000771  0.4184000  2
   1276   1282   2208   2202     1  0.0000000  1.6024720  3
   1282   2208   2202   2199     1  180.0000771  0.4184000  2
   1282   2208   2202   2199     1  0.0000000  1.6024720  3
   1285   2222   2216   2213     1  180.0000771  0.4184000  2
   1285   2222   2216   2213     1  0.0000000  1.6024720  3
   1290   1291   1303   1315     1  0.0000000  0.6508444  3
   1290   1294   1306   1312     1  0.0000000  0.6508444  3
   1290   1297   1300   1309     1  0.0000000  0.6508444  3
   1291   1290   1294   1306     1  0.0000000  0.6508444  3
   1291   1290   1297   1300     1  0.0000000  0.6508444  3
   1291   1303   1315   2250     1  0.0000000  0.6508444  3
   1294   1290   1291   1303     1  0.0000000  0.6508444  3
   1294   1290   1297   1300     1  0.0000000  0.6508444  3
   1294   1306   1312   2236     1  0.0000000  0.6508444  3
   1297   1290   1291   1303     1  0.0000000  0.6508444  3
   1297   1290   1294   1306     1  0.0000000  0.6508444  3
   1297   1300   1309   1318     1  0.0000000  0.6508444  3
   1303   1315   2250   2244     1  180.0000771  0.4184000  2
   1303   1315   2250   2244     1  0.0000000  1.6024720  3
   1306   1312   2236   2230     1  180.0000771  0.4184000  2
   1306   1312   2236   2230     1  0.0000000  1.6024720  3
   1312   2236   2230   2227     1  180.0000771  0.4184000  2
   1312   2236   2230   2227     1  0.0000000  1.6024720  3
   1315   2250   2244   2241     1  180.0000771  0.4184000  2
   1315   2250   2244   2241     1  0.0000000  1.6024720  3
   1320   1321   1333   1345     1  0.0000000  0.6508444  3
   1320   1324   1336   1342     1  0.0000000  0.6508444  3
   1320   1327   1330   1339     1  0.0000000  0.6508444  3
   1321   1320   1324   1336     1  0.0000000  0.6508444  3
   1321   1320   1327   1330     1  0.0000000  0.6508444  3
   1321   1333   1345   2278     1  0.0000000  0.6508444  3
   1324   1320   1321   1333     1  0.0000000  0.6508444  3
   1324   1320   1327   1330     1  0.0000000  0.6508444  3
   1324   1336   1342   2264     1  0.0000000  0.6508444  3
   1327   1320   1321   1333     1  0.0000000  0.6508444  3
   1327   1320   1324   1336     1  0.0000000  0.6508444  3
   1327   1330   1339   1348     1  0.0000000  0.6508444  3
   1333   1345   2278   2272     1  180.0000771  0.4184000  2
   1333   1345   2278   2272     1  0.0000000  1.6024720  3
   1336   1342   2264   2258     1  180.0000771  0.4184000  2
   1336   1342   2264   2258     1  0.0000000  1.6024720  3
   1342   2264   2258   2255     1  180.0000771  0.4184000  2
   1342   2264   2258   2255     1  0.0000000  1.6024720  3
   1345   2278   2272   2269     1  180.0000771  0.4184000  2
   1345   2278   2272   2269     1  0.0000000  1.6024720  3
   1350   1351   1363   1375     1  0.0000000  0.6508444  3
   1350   1354   1366   1372     1  0.0000000  0.6508444  3
   1350   1357   1360   1369     1  0.0000000  0.6508444  3
   1351   1350   1354   1366     1  0.0000000  0.6508444  3
   1351   1350   1357   1360     1  0.0000000  0.6508444  3
   1351   1363   1375   2306     1  0.0000000  0.6508444  3
   1354   1350   1351   1363     1  0.0000000  0.6508444  3
   1354   1350   1357   1360     1  0.0000000  0.6508444  3
   1354   1366   1372   2292     1  0.0000000  0.6508444  3
   1357   1350   1351   1363     1  0.0000000  0.6508444  3
   1357   1350   1354   1366     1  0.0000000  0.6508444  3
   1357   1360   1369   1378     1  0.0000000  0.6508444  3
   1363   1375   2306   2300     1  180.0000771  0.4184000  2
   1363   1375   2306   2300     1  0.0000000  1.6024720  3
   1366   1372   2292   2286     1  180.0000771  0.4184000  2
   1366   1372   2292   2286     1  0.0000000  1.6024720  3
   1372   2292   2286   2283     1  180.0000771  0.4184000  2
   1372   2292   2286   2283     1  0.0000000  1.6024720  3
   1375   2306   2300   2297     1  180.0000771  0.4184000  2
   1375   2306   2300   2297     1  0.0000000  1.6024720  3
   1380   1381   1393   1405     1  0.0000000  0.6508444  3
   1380   1384   1396   1402     1  0.0000000  0.6508444  3
   1380   1387   1390   1399     1  0.0000000  0.6508444  3
   1381   1380   1384   1396     1  0.0000000  0.6508444  3
   1381   1380   1387   1390     1  0.0000000  0.6508444  3
   1381   1393   1405   2334     1  0.0000000  0.6508444  3
   1384   1380   1381   1393     1  0.0000000  0.6508444  3
   1384   1380   1387   1390     1  0.0000000  0.6508444  3
   1384   1396   1402   2320     1  0.0000000  0.6508444  3
   1387   1380   1381   1393     1  0.0000000  0.6508444  3
   1387   1380   1384   1396     1  0.0000000  0.6508444  3
   1387   1390   1399   1408     1  0.0000000  0.6508444  3
   1393   1405   2334   2328     1  180.0000771  0.4184000  2
   1393   1405   2334   2328     1  0.0000000  1.6024720  3
   1396   1402   2320   2314     1  180.0000771  0.4184000  2
   1396   1402   2320   2314     1  0.0000000  1.6024720  3
   1402   2320   2314   2311     1  180.0000771  0.4184000  2
   1402   2320   2314   2311     1  0.0000000  1.6024720  3
   1405   2334   2328   2325     1  180.0000771  0.4184000  2
   1405   2334   2328   2325     1  0.0000000  1.6024720  3
   1410   1411   1423   1435     1  0.0000000  0.6508444  3
   1410   1414   1426   1432     1  0.0000000  0.6508444  3
   1410   1417   1420   1429     1  0.0000000  0.6508444  3
   1411   1410   1414   1426     1  0.0000000  0.6508444  3
   1411   1410   1417   1420     1  0.0000000  0.6508444  3
   1411   1423   1435   2362     1  0.0000000  0.6508444  3
   1414   1410   1411   1423     1  0.0000000  0.6508444  3
   1414   1410   1417   1420     1  0.0000000  0.6508444  3
   1414   1426   1432   2348     1  0.0000000  0.6508444  3
   1417   1410   1411   1423     1  0.0000000  0.6508444  3
   1417   1410   1414   1426     1  0.0000000  0.6508444  3
   1417   1420   1429   1438     1  0.0000000  0.6508444  3
   1423   1435   2362   2356     1  180.0000771  0.4184000  2
   1423   1435   2362   2356     1  0.0000000  1.6024720  3
   1426   1432   2348   2342     1  180.0000771  0.4184000  2
   1426   1432   2348   2342     1  0.0000000  1.6024720  3
   1432   2348   2342   2339     1  180.0000771  0.4184000  2
   1432   2348   2342   2339     1  0.0000000  1.6024720  3
   1435   2362   2356   2353     1  180.0000771  0.4184000  2
   1435   2362   2356   2353     1  0.0000000  1.6024720  3
   1440   1441   1453   1465     1  0.0000000  0.6508444  3
   1440   1444   1456   1462     1  0.0000000  0.6508444  3
   1440   1447   1450   1459     1  0.0000000  0.6508444  3
   1441   1440   1444   1456     1  0.0000000  0.6508444  3
   1441   1440   1447   1450     1  0.0000000  0.6508444  3
   1441   1453   1465   2390     1  0.0000000  0.6508444  3
   1444   1440   1441   1453     1  0.0000000  0.6508444  3
   1444   1440   1447   1450     1  0.0000000  0.6508444  3
   1444   1456   1462   2376     1  0.0000000  0.6508444  3
   1447   1440   1441   1453     1  0.0000000  0.6508444  3
   1447   1440   1444   1456     1  0.0000000  0.6508444  3
   1447   1450   1459   1468     1  0.0000000  0.6508444  3
   1453   1465   2390   2384     1  180.0000771  0.4184000  2
   1453   1465   2390   2384     1  0.0000000  1.6024720  3
   1456   1462   2376   2370     1  180.0000771  0.4184000  2
   1456   1462   2376   2370     1  0.0000000  1.6024720  3
   1462   2376   2370   2367     1  180.0000771  0.4184000  2
   1462   2376   2370   2367     1  0.0000000  1.6024720  3
   1465   2390   2384   2381     1  180.0000771  0.4184000  2
   1465   2390   2384   2381     1  0.0000000  1.6024720  3
   1470   1471   1483   1495     1  0.0000000  0.6508444  3
   1470   1474   1486   1492     1  0.0000000  0.6508444  3
   1470   1477   1480   1489     1  0.0000000  0.6508444  3
   1471   1470   1474   1486     1  0.0000000  0.6508444  3
   1471   1470   1477   1480     1  0.0000000  0.6508444  3
   1471   1483   1495   2418     1  0.0000000  0.6508444  3
   1474   1470   1471   1483     1  0.0000000  0.6508444  3
   1474   1470   1477   1480     1  0.0000000  0.6508444  3
   1474   1486   1492   2404     1  0.0000000  0.6508444  3
   1477   1470   1471   1483     1  0.0000000  0.6508444  3
   1477   1470   1474   1486     1  0.0000000  0.6508444  3
   1477   1480   1489   1498     1  0.0000000  0.6508444  3
   1483   1495   2418   2412     1  180.0000771  0.4184000  2
   1483   1495   2418   2412     1  0.0000000  1.6024720  3
   1486   1492   2404   2398     1  180.0000771  0.4184000  2
   1486   1492   2404   2398     1  0.0000000  1.6024720  3
   1492   2404   2398   2395     1  180.0000771  0.4184000  2
   1492   2404   2398   2395     1  0.0000000  1.6024720  3
   1495   2418   2412   2409     1  180.0000771  0.4184000  2
   1495   2418   2412   2409     1  0.0000000  1.6024720  3
   1500   1501   1513   1525     1  0.0000000  0.6508444  3
   1500   1504   1516   1522     1  0.0000000  0.6508444  3
   1500   1507   1510   1519     1  0.0000000  0.6508444  3
   1501   1500   1504   1516     1  0.0000000  0.6508444  3
   1501   1500   1507   1510     1  0.0000000  0.6508444  3
   1501   1513   1525   2446     1  0.0000000  0.6508444  3
   1504   1500   1501   1513     1  0.0000000  0.6508444  3
   1504   1500   1507   1510     1  0.0000000  0.6508444  3
   1504   1516   1522   2432     1  0.0000000  0.6508444  3
   1507   1500   1501   1513     1  0.0000000  0.6508444  3
   1507   1500   1504   1516     1  0.0000000  0.6508444  3
   1507   1510   1519   1528     1  0.0000000  0.6508444  3
   1513   1525   2446   2440     1  180.0000771  0.4184000  2
   1513   1525   2446   2440     1  0.0000000  1.6024720  3
   1516   1522   2432   2426     1  180.0000771  0.4184000  2
   1516   1522   2432   2426     1  0.0000000  1.6024720  3
   1522   2432   2426   2423     1  180.0000771  0.4184000  2
   1522   2432   2426   2423     1  0.0000000  1.6024720  3
   1525   2446   2440   2437     1  180.0000771  0.4184000  2
   1525   2446   2440   2437     1  0.0000000  1.6024720  3
   1530   1531   1543   1555     1  0.0000000  0.6508444  3
   1530   1534   1546   1552     1  0.0000000  0.6508444  3
   1530   1537   1540   1549     1  0.0000000  0.6508444  3
   1531   1530   1534   1546     1  0.0000000  0.6508444  3
   1531   1530   1537   1540     1  0.0000000  0.6508444  3
   1531   1543   1555   2474     1  0.0000000  0.6508444  3
   1534   1530   1531   1543     1  0.0000000  0.6508444  3
   1534   1530   1537   1540     1  0.0000000  0.6508444  3
   1534   1546   1552   2460     1  0.0000000  0.6508444  3
   1537   1530   1531   1543     1  0.0000000  0.6508444  3
   1537   1530   1534   1546     1  0.0000000  0.6508444  3
   1537   1540   1549   1558     1  0.0000000  0.6508444  3
   1543   1555   2474   2468     1  180.0000771  0.4184000  2
   1543   1555   2474   2468     1  0.0000000  1.6024720  3
   1546   1552   2460   2454     1  180.0000771  0.4184000  2
   1546   1552   2460   2454     1  0.0000000  1.6024720  3
   1552   2460   2454   2451     1  180.0000771  0.4184000  2
   1552   2460   2454   2451     1  0.0000000  1.6024720  3
   1555   2474   2468   2465     1  180.0000771  0.4184000  2
   1555   2474   2468   2465     1  0.0000000  1.6024720  3
   1560   1561   1573   1585     1  0.0000000  0.6508444  3
   1560   1564   1576   1582     1  0.0000000  0.6508444  3
   1560   1567   1570   1579     1  0.0000000  0.6508444  3
   1561   1560   1564   1576     1  0.0000000  0.6508444  3
   1561   1560   1567   1570     1  0.0000000  0.6508444  3
   1561   1573   1585   2502     1  0.0000000  0.6508444  3
   1564   1560   1561   1573     1  0.0000000  0.6508444  3
   1564   1560   1567   1570     1  0.0000000  0.6508444  3
   1564   1576   1582   2488     1  0.0000000  0.6508444  3
   1567   1560   1561   1573     1  0.0000000  0.6508444  3
   1567   1560   1564   1576     1  0.0000000  0.6508444  3
   1567   1570   1579   1588     1  0.0000000  0.6508444  3
   1573   1585   2502   2496     1  180.0000771  0.4184000  2
   1573   1585   2502   2496     1  0.0000000  1.6024720  3
   1576   1582   2488   2482     1  180.0000771  0.4184000  2
   1576   1582   2488   2482     1  0.0000000  1.6024720  3
   1582   2488   2482   2479     1  180.0000771  0.4184000  2
   1582   2488   2482   2479     1  0.0000000  1.6024720  3
   1585   2502   2496   2493     1  180.0000771  0.4184000  2
   1585   2502   2496   2493     1  0.0000000  1.6024720  3
   1590   1591   1603   1615     1  0.0000000  0.6508444  3
   1590   1594   1606   1612     1  0.0000000  0.6508444  3
   1590   1597   1600   1609     1  0.0000000  0.6508444  3
   1591   1590   1594   1606     1  0.0000000  0.6508444  3
   1591   1590   1597   1600     1  0.0000000  0.6508444  3
   1591   1603   1615   2530     1  0.0000000  0.6508444  3
   1594   1590   1591   1603     1  0.0000000  0.6508444  3
   1594   1590   1597   1600     1  0.0000000  0.6508444  3
   1594   1606   1612   2516     1  0.0000000  0.6508444  3
   1597   1590   1591   1603     1  0.0000000  0.6508444  3
   1597   1590   1594   1606     1  0.0000000  0.6508444  3
   1597   1600   1609   1618     1  0.0000000  0.6508444  3
   1603   1615   2530   2524     1  180.0000771  0.4184000  2
   1603   1615   2530   2524     1  0.0000000  1.6024720  3
   1606   1612   2516   2510     1  180.0000771  0.4184000  2
   1606   1612   2516   2510     1  0.0000000  1.6024720  3
   1612   2516   2510   2507     1  180.0000771  0.4184000  2
   1612   2516   2510   2507     1  0.0000000  1.6024720  3
   1615   2530   2524   2521     1  180.0000771  0.4184000  2
   1615   2530   2524   2521     1  0.0000000  1.6024720  3
   1620   1621   1633   1645     1  0.0000000  0.6508444  3
   1620   1624   1636   1642     1  0.0000000  0.6508444  3
   1620   1627   1630   1639     1  0.0000000  0.6508444  3
   1621   1620   1624   1636     1  0.0000000  0.6508444  3
   1621   1620   1627   1630     1  0.0000000  0.6508444  3
   1621   1633   1645   2558     1  0.0000000  0.6508444  3
   1624   1620   1621   1633     1  0.0000000  0.6508444  3
   1624   1620   1627   1630     1  0.0000000  0.6508444  3
   1624   1636   1642   2544     1  0.0000000  0.6508444  3
   1627   1620   1621   1633     1  0.0000000  0.6508444  3
   1627   1620   1624   1636     1  0.0000000  0.6508444  3
   1627   1630   1639   1648     1  0.0000000  0.6508444  3
   1633   1645   2558   2552     1  180.0000771  0.4184000  2
   1633   1645   2558   2552     1  0.0000000  1.6024720  3
   1636   1642   2544   2538     1  180.0000771  0.4184000  2
   1636   1642   2544   2538     1  0.0000000  1.6024720  3
   1642   2544   2538   2535     1  180.0000771  0.4184000  2
   1642   2544   2538   2535     1  0.0000000  1.6024720  3
   1645   2558   2552   2549     1  180.0000771  0.4184000  2
   1645   2558   2552   2549     1  0.0000000  1.6024720  3
   1650   1651   1663   1675     1  0.0000000  0.6508444  3
   1650   1654   1666   1672     1  0.0000000  0.6508444  3
   1650   1657   1660   1669     1  0.0000000  0.6508444  3
   1651   1650   1654   1666     1  0.0000000  0.6508444  3
   1651   1650   1657   1660     1  0.0000000  0.6508444  3
   1651   1663   1675   2586     1  0.0000000  0.6508444  3
   1654   1650   1651   1663     1  0.0000000  0.6508444  3
   1654   1650   1657   1660     1  0.0000000  0.6508444  3
   1654   1666   1672   2572     1  0.0000000  0.6508444  3
   1657   1650   1651   1663     1  0.0000000  0.6508444  3
   1657   1650   1654   1666     1  0.0000000  0.6508444  3
   1657   1660   1669   1678     1  0.0000000  0.6508444  3
   1663   1675   2586   2580     1  180.0000771  0.4184000  2
   1663   1675   2586   2580     1  0.0000000  1.6024720  3
   1666   1672   2572   2566     1  180.0000771  0.4184000  2
   1666   1672   2572   2566     1  0.0000000  1.6024720  3
   1672   2572   2566   2563     1  180.0000771  0.4184000  2
   1672   2572   2566   2563     1  0.0000000  1.6024720  3
   1675   2586   2580   2577     1  180.0000771  0.4184000  2
   1675   2586   2580   2577     1  0.0000000  1.6024720  3
   1680   1681   1693   1705     1  0.0000000  0.6508444  3
   1680   1684   1696   1702     1  0.0000000  0.6508444  3
   1680   1687   1690   1699     1  0.0000000  0.6508444  3
   1681   1680   1684   1696     1  0.0000000  0.6508444  3
   1681   1680   1687   1690     1  0.0000000  0.6508444  3
   1681   1693   1705   2614     1  0.0000000  0.6508444  3
   1684   1680   1681   1693     1  0.0000000  0.6508444  3
   1684   1680   1687   1690     1  0.0000000  0.6508444  3
   1684   1696   1702   2600     1  0.0000000  0.6508444  3
   1687   1680   1681   1693     1  0.0000000  0.6508444  3
   1687   1680   1684   1696     1  0.0000000  0.6508444  3
   1687   1690   1699   1708     1  0.0000000  0.6508444  3
   1693   1705   2614   2608     1  180.0000771  0.4184000  2
   1693   1705   2614   2608     1  0.0000000  1.6024720  3
   1696   1702   2600   2594     1  180.0000771  0.4184000  2
   1696   1702   2600   2594     1  0.0000000  1.6024720  3
   1702   2600   2594   2591     1  180.0000771  0.4184000  2
   1702   2600   2594   2591     1  0.0000000  1.6024720  3
   1705   2614   2608   2605     1  180.0000771  0.4184000  2
   1705   2614   2608   2605     1  0.0000000  1.6024720  3
   1710   1711   1723   1735     1  0.0000000  0.6508444  3
   1710   1714   1726   1732     1  0.0000000  0.6508444  3
   1710   1717   1720   1729     1  0.0000000  0.6508444  3
   1711   1710   1714   1726     1  0.0000000  0.6508444  3
   1711   1710   1717   1720     1  0.0000000  0.6508444  3
   1711   1723   1735   2642     1  0.0000000  0.6508444  3
   1714   1710   1711   1723     1  0.0000000  0.6508444  3
   1714   1710   1717   1720     1  0.0000000  0.6508444  3
   1714   1726   1732   2628     1  0.0000000  0.6508444  3
   1717   1710   1711   1723     1  0.0000000  0.6508444  3
   1717   1710   1714   1726     1  0.0000000  0.6508444  3
   1717   1720   1729   1738     1  0.0000000  0.6508444  3
   1723   1735   2642   2636     1  180.0000771  0.4184000  2
   1723   1735   2642   2636     1  0.0000000  1.6024720  3
   1726   1732   2628   2622     1  180.0000771  0.4184000  2
   1726   1732   2628   2622     1  0.0000000  1.6024720  3
   1732   2628   2622   2619     1  180.0000771  0.4184000  2
   1732   2628   2622   2619     1  0.0000000  1.6024720  3
   1735   2642   2636   2633     1  180.0000771  0.4184000  2
   1735   2642   2636   2633     1  0.0000000  1.6024720  3
   1740   1741   1753   1765     1  0.0000000  0.6508444  3
   1740   1744   1756   1762     1  0.0000000  0.6508444  3
   1740   1747   1750   1759     1  0.0000000  0.6508444  3
   1741   1740   1744   1756     1  0.0000000  0.6508444  3
   1741   1740   1747   1750     1  0.0000000  0.6508444  3
   1741   1753   1765   2670     1  0.0000000  0.6508444  3
   1744   1740   1741   1753     1  0.0000000  0.6508444  3
   1744   1740   1747   1750     1  0.0000000  0.6508444  3
   1744   1756   1762   2656     1  0.0000000  0.6508444  3
   1747   1740   1741   1753     1  0.0000000  0.6508444  3
   1747   1740   1744   1756     1  0.0000000  0.6508444  3
   1747   1750   1759   1768     1  0.0000000  0.6508444  3
   1753   1765   2670   2664     1  180.0000771  0.4184000  2
   1753   1765   2670   2664     1  0.0000000  1.6024720  3
   1756   1762   2656   2650     1  180.0000771  0.4184000  2
   1756   1762   2656   2650     1  0.0000000  1.6024720  3
   1762   2656   2650   2647     1  180.0000771  0.4184000  2
   1762   2656   2650   2647     1  0.0000000  1.6024720  3
   1765   2670   2664   2661     1  180.0000771  0.4184000  2
   1765   2670   2664   2661     1  0.0000000  1.6024720  3
   1770   1771   1783   1795     1  0.0000000  0.6508444  3
   1770   1774   1786   1792     1  0.0000000  0.6508444  3
   1770   1777   1780   1789     1  0.0000000  0.6508444  3
   1771   1770   1774   1786     1  0.0000000  0.6508444  3
   1771   1770   1777   1780     1  0.0000000  0.6508444  3
   1771   1783   1795   2698     1  0.0000000  0.6508444  3
   1774   1770   1771   1783     1  0.0000000  0.6508444  3
   1774   1770   1777   1780     1  0.0000000  0.6508444  3
   1774   1786   1792   2684     1  0.0000000  0.6508444  3
   1777   1770   1771   1783     1  0.0000000  0.6508444  3
   1777   1770   1774   1786     1  0.0000000  0.6508444  3
   1777   1780   1789   1798     1  0.0000000  0.6508444  3
   1783   1795   2698   2692     1  180.0000771  0.4184000  2
   1783   1795   2698   2692     1  0.0000000  1.6024720  3
   1786   1792   2684   2678     1  180.0000771  0.4184000  2
   1786   1792   2684   2678     1  0.0000000  1.6024720  3
   1792   2684   2678   2675     1  180.0000771  0.4184000  2
   1792   2684   2678   2675     1  0.0000000  1.6024720  3
   1795   2698   2692   2689     1  180.0000771  0.4184000  2
   1795   2698   2692   2689     1  0.0000000  1.6024720  3
   1800   1801   1813   1825     1  0.0000000  0.6508444  3
   1800   1804   1816   1822     1  0.0000000  0.6508444  3
   1800   1807   1810   1819     1  0.0000000  0.6508444  3
   1801   1800   1804   1816     1  0.0000000  0.6508444  3
   1801   1800   1807   1810     1  0.0000000  0.6508444  3
   1801   1813   1825   2726     1  0.0000000  0.6508444  3
   1804   1800   1801   1813     1  0.0000000  0.6508444  3
   1804   1800   1807   1810     1  0.0000000  0.6508444  3
   1804   1816   1822   2712     1  0.0000000  0.6508444  3
   1807   1800   1801   1813     1  0.0000000  0.6508444  3
   1807   1800   1804   1816     1  0.0000000  0.6508444  3
   1807   1810   1819   1828     1  0.0000000  0.6508444  3
   1813   1825   2726   2720     1  180.0000771  0.4184000  2
   1813   1825   2726   2720     1  0.0000000  1.6024720  3
   1816   1822   2712   2706     1  180.0000771  0.4184000  2
   1816   1822   2712   2706     1  0.0000000  1.6024720  3
   1822   2712   2706   2703     1  180.0000771  0.4184000  2
   1822   2712   2706   2703     1  0.0000000  1.6024720  3
   1825   2726   2720   2717     1  180.0000771  0.4184000  2
   1825   2726   2720   2717     1  0.0000000  1.6024720  3
   1830   1831   1843   1855     1  0.0000000  0.6508444  3
   1830   1834   1846   1852     1  0.0000000  0.6508444  3
   1830   1837   1840   1849     1  0.0000000  0.6508444  3
   1831   1830   1834   1846     1  0.0000000  0.6508444  3
   1831   1830   1837   1840     1  0.0000000  0.6508444  3
   1831   1843   1855   2754     1  0.0000000  0.6508444  3
   1834   1830   1831   1843     1  0.0000000  0.6508444  3
   1834   1830   1837   1840     1  0.0000000  0.6508444  3
   1834   1846   1852   2740     1  0.0000000  0.6508444  3
   1837   1830   1831   1843     1  0.0000000  0.6508444  3
   1837   1830   1834   1846     1  0.0000000  0.6508444  3
   1837   1840   1849   1858     1  0.0000000  0.6508444  3
   1843   1855   2754   2748     1  180.0000771  0.4184000  2
   1843   1855   2754   2748     1  0.0000000  1.6024720  3
   1846   1852   2740   2734     1  180.0000771  0.4184000  2
   1846   1852   2740   2734     1  0.0000000  1.6024720  3
   1852   2740   2734   2731     1  180.0000771  0.4184000  2
   1852   2740   2734   2731     1  0.0000000  1.6024720  3
   1855   2754   2748   2745     1  180.0000771  0.4184000  2
   1855   2754   2748   2745     1  0.0000000  1.6024720  3
   1860   1863   1866   1872     1  0.0000000  0.6508444  3
   1866   1863   1860   1869     1  0.0000000  0.6508444  3
   1874   1877   1880   1886     1  0.0000000  0.6508444  3
   1880   1877   1874   1883     1  0.0000000  0.6508444  3
   1888   1891   1894   1900     1  0.0000000  0.6508444  3
   1894   1891   1888   1897     1  0.0000000  0.6508444  3
   1902   1905   1908   1914     1  0.0000000  0.6508444  3
   1908   1905   1902   1911     1  0.0000000  0.6508444  3
   1916   1919   1922   1928     1  0.0000000  0.6508444  3
   1922   1919   1916   1925     1  0.0000000  0.6508444  3
   1930   1933   1936   1942     1  0.0000000  0.6508444  3
   1936   1933   1930   1939     1  0.0000000  0.6508444  3
   1944   1947   1950   1956     1  0.0000000  0.6508444  3
   1950   1947   1944   1953     1  0.0000000  0.6508444  3
   1958   1961   1964   1970     1  0.0000000  0.6508444  3
   1964   1961   1958   1967     1  0.0000000  0.6508444  3
   1972   1975   1978   1984     1  0.0000000  0.6508444  3
   1978   1975   1972   1981     1  0.0000000  0.6508444  3
   1986   1989   1992   1998     1  0.0000000  0.6508444  3
   1992   1989   1986   1995     1  0.0000000  0.6508444  3
   2000   2003   2006   2012     1  0.0000000  0.6508444  3
   2006   2003   2000   2009     1  0.0000000  0.6508444  3
   2014   2017   2020   2026     1  0.0000000  0.6508444  3
   2020   2017   2014   2023     1  0.0000000  0.6508444  3
   2028   2031   2034   2040     1  0.0000000  0.6508444  3
   2034   2031   2028   2037     1  0.0000000  0.6508444  3
   2042   2045   2048   2054     1  0.0000000  0.6508444  3
   2048   2045   2042   2051     1  0.0000000  0.6508444  3
   2056   2059   2062   2068     1  0.0000000  0.6508444  3
   2062   2059   2056   2065     1  0.0000000  0.6508444  3
   2070   2073   2076   2082     1  0.0000000  0.6508444  3
   2076   2073   2070   2079     1  0.0000000  0.6508444  3
   2084   2087   2090   2096     1  0.0000000  0.6508444  3
   2090   2087   2084   2093     1  0.0000000  0.6508444  3
   2098   2101   2104   2110     1  0.0000000  0.6508444  3
   2104   2101   2098   2107     1  0.0000000  0.6508444  3
   2112   2115   2118   2124     1  0.0000000  0.6508444  3
   2118   2115   2112   2121     1  0.0000000  0.6508444  3
   2126   2129   2132   2138     1  0.0000000  0.6508444  3
   2132   2129   2126   2135     1  0.0000000  0.6508444  3
   2140   2143   2146   2152     1  0.0000000  0.6508444  3
   2146   2143   2140   2149     1  0.0000000  0.6508444  3
   2154   2157   2160   2166     1  0.0000000  0.6508444  3
   2160   2157   2154   2163     1  0.0000000  0.6508444  3
   2168   2171   2174   2180     1  0.0000000  0.6508444  3
   2174   2171   2168   2177     1  0.0000000  0.6508444  3
   2182   2185   2188   2194     1  0.0000000  0.6508444  3
   2188   2185   2182   2191     1  0.0000000  0.6508444  3
   2196   2199   2202   2208     1  0.0000000  0.6508444  3
   2202   2199   2196   2205     1  0.0000000  0.6508444  3
   2210   2213   2216   2222     1  0.0000000  0.6508444  3
   2216   2213   2210   2219     1  0.0000000  0.6508444  3
   2224   2227   2230   2236     1  0.0000000  0.6508444  3
   2230   2227   2224   2233     1  0.0000000  0.6508444  3
   2238   2241   2244   2250     1  0.0000000  0.6508444  3
   2244   2241   2238   2247     1  0.0000000  0.6508444  3
   2252   2255   2258   2264     1  0.0000000  0.6508444  3
   2258   2255   2252   2261     1  0.0000000  0.6508444  3
   2266   2269   2272   2278     1  0.0000000  0.6508444  3
   2272   2269   2266   2275     1  0.0000000  0.6508444  3
   2280   2283   2286   2292     1  0.0000000  0.6508444  3
   2286   2283   2280   2289     1  0.0000000  0.6508444  3
   2294   2297   2300   2306     1  0.0000000  0.6508444  3
   2300   2297   2294   2303     1  0.0000000  0.6508444  3
   2308   2311   2314   2320     1  0.0000000  0.6508444  3
   2314   2311   2308   2317     1  0.0000000  0.6508444  3
   2322   2325   2328   2334     1  0.0000000  0.6508444  3
   2328   2325   2322   2331     1  0.0000000  0.6508444  3
   2336   2339   2342   2348     1  0.0000000  0.6508444  3
   2342   2339   2336   2345     1  0.0000000  0.6508444  3
   2350   2353   2356   2362     1  0.0000000  0.6508444  3
   2356   2353   2350   2359     1  0.0000000  0.6508444  3
   2364   2367   2370   2376     1  0.0000000  0.6508444  3
   2370   2367   2364   2373     1  0.0000000  0.6508444  3
   2378   2381   2384   2390     1  0.0000000  0.6508444  3
   2384   2381   2378   2387     1  0.0000000  0.6508444  3
   2392   2395   2398   2404     1  0.0000000  0.6508444  3
   2398   2395   2392   2401     1  0.0000000  0.6508444  3
   2406   2409   2412   2418     1  0.0000000  0.6508444  3
   2412   2409   2406   2415     1  0.0000000  0.6508444  3
   2420   2423   2426   2432     1  0.0000000  0.6508444  3
   2426   2423   2420   2429     1  0.0000000  0.6508444  3
   2434   2437   2440   2446     1  0.0000000  0.6508444  3
   2440   2437   2434   2443     1  0.0000000  0.6508444  3
   2448   2451   2454   2460     1  0.0000000  0.6508444  3
   2454   2451   2448   2457     1  0.0000000  0.6508444  3
   2462   2465   2468   2474     1  0.0000000  0.6508444  3
   2468   2465   2462   2471     1  0.0000000  0.6508444  3
   2476   2479   2482   2488     1  0.0000000  0.6508444  3
   2482   2479   2476   2485     1  0.0000000  0.6508444  3
   2490   2493   2496   2502     1  0.0000000  0.6508444  3
   2496   2493   2490   2499     1  0.0000000  0.6508444  3
   2504   2507   2510   2516     1  0.0000000  0.6508444  3
   2510   2507   2504   2513     1  0.0000000  0.6508444  3
   2518   2521   2524   2530     1  0.0000000  0.6508444  3
   2524   2521   2518   2527     1  0.0000000  0.6508444  3
   2532   2535   2538   2544     1  0.0000000  0.6508444  3
   2538   2535   2532   2541     1  0.0000000  0.6508444  3
   2546   2549   2552   2558     1  0.0000000  0.6508444  3
   2552   2549   2546   2555     1  0.0000000  0.6508444  3
   2560   2563   2566   2572     1  0.0000000  0.6508444  3
   2566   2563   2560   2569     1  0.0000000  0.6508444  3
   2574   2577   2580   2586     1  0.0000000  0.6508444  3
   2580   2577   2574   2583     1  0.0000000  0.6508444  3
   2588   2591   2594   2600     1  0.0000000  0.6508444  3
   2594   2591   2588   2597     1  0.0000000  0.6508444  3
   2602   2605   2608   2614     1  0.0000000  0.6508444  3
   2608   2605   2602   2611     1  0.0000000  0.6508444  3
   2616   2619   2622   2628     1  0.0000000  0.6508444  3
   2622   2619   2616   2625     1  0.0000000  0.6508444  3
   2630   2633   2636   2642     1  0.0000000  0.6508444  3
   2636   2633   2630   2639     1  0.0000000  0.6508444  3
   2644   2647   2650   2656     1  0.0000000  0.6508444  3
   2650   2647   2644   2653     1  0.0000000  0.6508444  3
   2658   2661   2664   2670     1  0.0000000  0.6508444  3
   2664   2661   2658   2667     1  0.0000000  0.6508444  3
   2672   2675   2678   2684     1  0.0000000  0.6508444  3
   2678   2675   2672   2681     1  0.0000000  0.6508444  3
   2686   2689   2692   2698     1  0.0000000  0.6508444  3
   2692   2689   2686   2695     1  0.0000000  0.6508444  3
   2700   2703   2706   2712     1  0.0000000  0.6508444  3
   2706   2703   2700   2709     1  0.0000000  0.6508444  3
   2714   2717   2720   2726     1  0.0000000  0.6508444  3
   2720   2717   2714   2723     1  0.0000000  0.6508444  3
   2728   2731   2734   2740     1  0.0000000  0.6508444  3
   2734   2731   2728   2737     1  0.0000000  0.6508444  3
   2742   2745   2748   2754     1  0.0000000  0.6508444  3
   2748   2745   2742   2751     1  0.0000000  0.6508444  3
      1      2      8      9     1  0.0000000  1.0460000  1
      1      2      8      9     1  0.0000000  0.0000000  3
      1      2      8     10     1  0.0000000  1.0460000  1
      1      2      8     10     1  0.0000000  0.0000000  3
      1      5     11     12     1  0.0000000  1.0460000  1
      1      5     11     12     1  0.0000000  0.0000000  3
      1      5     11     13     1  0.0000000  1.0460000  1
      1      5     11     13     1  0.0000000  0.0000000  3
      2      1      5      6     1  0.0000000  1.6038667  3
      2      1      5      7     1  0.0000000  1.6038667  3
      2      8     14     15     1  0.0000000  0.6508444  3
      2      8     14     16     1  0.0000000  0.6508444  3
      5      1      2      3     1  0.0000000  1.6038667  3
      3      2      8     14     1  0.0000000  0.6508444  3
      3      2      8      9     1  0.0000000  0.6508444  3
      3      2      8     10     1  0.0000000  0.6508444  3
      5      1      2      4     1  0.0000000  1.6038667  3
      4      2      8     14     1  0.0000000  0.6508444  3
      4      2      8      9     1  0.0000000  0.6508444  3
      4      2      8     10     1  0.0000000  0.6508444  3
      5     11     17     18     1  0.0000000  0.6508444  3
      5     11     17     19     1  0.0000000  0.6508444  3
      6      5     11     17     1  0.0000000  0.6508444  3
      6      5     11     12     1  0.0000000  0.6508444  3
      6      5     11     13     1  0.0000000  0.6508444  3
      7      5     11     17     1  0.0000000  0.6508444  3
      7      5     11     12     1  0.0000000  0.6508444  3
      7      5     11     13     1  0.0000000  0.6508444  3
      8     14     20     58     1  0.0000000  0.6508444  3
      9      8     14     20     1  0.0000000  0.6508444  3
      9      8     14     15     1  0.0000000  0.6508444  3
      9      8     14     16     1  0.0000000  0.6508444  3
     10      8     14     20     1  0.0000000  0.6508444  3
     10      8     14     15     1  0.0000000  0.6508444  3
     10      8     14     16     1  0.0000000  0.6508444  3
     11     17     21     59     1  0.0000000  0.6508444  3
     12     11     17     21     1  0.0000000  0.6508444  3
     12     11     17     18     1  0.0000000  0.6508444  3
     12     11     17     19     1  0.0000000  0.6508444  3
     13     11     17     21     1  0.0000000  0.6508444  3
     13     11     17     18     1  0.0000000  0.6508444  3
     13     11     17     19     1  0.0000000  0.6508444  3
     14     20     28     29     1  0.0000000  0.6508444  3
     14     20     28     30     1  0.0000000  0.6508444  3
     14     20     31     32     1  0.0000000  0.6508444  3
     14     20     31     33     1  0.0000000  0.6508444  3
     15     14     20     28     1  0.0000000  0.6508444  3
     15     14     20     31     1  0.0000000  0.6508444  3
     15     14     20     58     1  0.0000000  0.6508444  3
     16     14     20     28     1  0.0000000  0.6508444  3
     16     14     20     31     1  0.0000000  0.6508444  3
     16     14     20     58     1  0.0000000  0.6508444  3
     17     21     22     23     1  0.0000000  0.6508444  3
     17     21     22     24     1  0.0000000  0.6508444  3
     17     21     25     26     1  0.0000000  0.6508444  3
     17     21     25     27     1  0.0000000  0.6508444  3
     18     17     21     22     1  0.0000000  0.6508444  3
     18     17     21     25     1  0.0000000  0.6508444  3
     18     17     21     59     1  0.0000000  0.6508444  3
     19     17     21     22     1  0.0000000  0.6508444  3
     19     17     21     25     1  0.0000000  0.6508444  3
     19     17     21     59     1  0.0000000  0.6508444  3
     20     28     40     41     1  0.0000000  0.6508444  3
     20     28     40     42     1  0.0000000  0.6508444  3
     20     31     43     44     1  0.0000000  0.6508444  3
     20     31     43     45     1  0.0000000  0.6508444  3
     21     22     34     35     1  0.0000000  0.6508444  3
     21     22     34     36     1  0.0000000  0.6508444  3
     21     25     37     38     1  0.0000000  0.6508444  3
     21     25     37     39     1  0.0000000  0.6508444  3
     22     21     25     26     1  0.0000000  0.6508444  3
     22     21     25     27     1  0.0000000  0.6508444  3
     22     34     55     56     1  0.0000000  0.6694400  3
     22     34     55     57     1  0.0000000  0.6694400  3
     23     22     21     25     1  0.0000000  0.6508444  3
     23     22     21     59     1  0.0000000  0.6508444  3
     23     22     34     55     1  0.0000000  0.6508444  3
     23     22     34     35     1  0.0000000  0.6508444  3
     23     22     34     36     1  0.0000000  0.6508444  3
     24     22     21     25     1  0.0000000  0.6508444  3
     24     22     21     59     1  0.0000000  0.6508444  3
     24     22     34     55     1  0.0000000  0.6508444  3
     24     22     34     35     1  0.0000000  0.6508444  3
     24     22     34     36     1  0.0000000  0.6508444  3
     25     37     52     53     1  0.0000000  0.6694400  3
     25     37     52     54     1  0.0000000  0.6694400  3
     26     25     21     59     1  0.0000000  0.6508444  3
     26     25     37     52     1  0.0000000  0.6508444  3
     26     25     37     38     1  0.0000000  0.6508444  3
     26     25     37     39     1  0.0000000  0.6508444  3
     27     25     21     59     1  0.0000000  0.6508444  3
     27     25     37     52     1  0.0000000  0.6508444  3
     27     25     37     38     1  0.0000000  0.6508444  3
     27     25     37     39     1  0.0000000  0.6508444  3
     28     20     31     32     1  0.0000000  0.6508444  3
     28     20     31     33     1  0.0000000  0.6508444  3
     28     40     49     50     1  0.0000000  0.6694400  3
     28     40     49     51     1  0.0000000  0.6694400  3
     29     28     20     31     1  0.0000000  0.6508444  3
     29     28     20     58     1  0.0000000  0.6508444  3
     29     28     40     49     1  0.0000000  0.6508444  3
     29     28     40     41     1  0.0000000  0.6508444  3
     29     28     40     42     1  0.0000000  0.6508444  3
     30     28     20     31     1  0.0000000  0.6508444  3
     30     28     20     58     1  0.0000000  0.6508444  3
     30     28     40     49     1  0.0000000  0.6508444  3
     30     28     40     41     1  0.0000000  0.6508444  3
     30     28     40     42     1  0.0000000  0.6508444  3
     31     43     46     47     1  0.0000000  0.6694400  3
     31     43     46     48     1  0.0000000  0.6694400  3
     32     31     20     58     1  0.0000000  0.6508444  3
     32     31     43     46     1  0.0000000  0.6508444  3
     32     31     43     44     1  0.0000000  0.6508444  3
     32     31     43     45     1  0.0000000  0.6508444  3
     33     31     20     58     1  0.0000000  0.6508444  3
     33     31     43     46     1  0.0000000  0.6508444  3
     33     31     43     44     1  0.0000000  0.6508444  3
     33     31     43     45     1  0.0000000  0.6508444  3
     34     22     21     59     1  0.0000000  0.6508444  3
     35     34     55    178     1  0.0000000  1.0460000  1
     35     34     55    178     1  0.0000000  0.0000000  3
     35     34     55     56     1  0.0000000  0.6276000  3
     35     34     55     57     1  0.0000000  0.6276000  3
     36     34     55    178     1  0.0000000  1.0460000  1
     36     34     55    178     1  0.0000000  0.0000000  3
     36     34     55     56     1  0.0000000  0.6276000  3
     36     34     55     57     1  0.0000000  0.6276000  3
     37     25     21     59     1  0.0000000  0.6508444  3
     38     37     52    148     1  0.0000000  1.0460000  1
     38     37     52    148     1  0.0000000  0.0000000  3
     38     37     52     53     1  0.0000000  0.6276000  3
     38     37     52     54     1  0.0000000  0.6276000  3
     39     37     52    148     1  0.0000000  1.0460000  1
     39     37     52    148     1  0.0000000  0.0000000  3
     39     37     52     53     1  0.0000000  0.6276000  3
     39     37     52     54     1  0.0000000  0.6276000  3
     40     28     20     58     1  0.0000000  0.6508444  3
     41     40     49    118     1  0.0000000  1.0460000  1
     41     40     49    118     1  0.0000000  0.0000000  3
     41     40     49     50     1  0.0000000  0.6276000  3
     41     40     49     51     1  0.0000000  0.6276000  3
     42     40     49    118     1  0.0000000  1.0460000  1
     42     40     49    118     1  0.0000000  0.0000000  3
     42     40     49     50     1  0.0000000  0.6276000  3
     42     40     49     51     1  0.0000000  0.6276000  3
     43     31     20     58     1  0.0000000  0.6508444  3
     44     43     46     88     1  0.0000000  1.0460000  1
     44     43     46     88     1  0.0000000  0.0000000  3
     44     43     46     47     1  0.0000000  0.6276000  3
     44     43     46     48     1  0.0000000  0.6276000  3
     45     43     46     88     1  0.0000000  1.0460000  1
     45     43     46     88     1  0.0000000  0.0000000  3
     45     43     46     47     1  0.0000000  0.6276000  3
     45     43     46     48     1  0.0000000  0.6276000  3
     46     88     79     80     1  0.0000000  1.6038667  3
     46     88     79     81     1  0.0000000  1.6038667  3
     47     46     88     79     1  0.0000000  1.6038667  3
     48     46     88     79     1  0.0000000  1.6038667  3
     49    118    109    110     1  0.0000000  1.6038667  3
     49    118    109    111     1  0.0000000  1.6038667  3
     50     49    118    109     1  0.0000000  1.6038667  3
     51     49    118    109     1  0.0000000  1.6038667  3
     52    148    139    140     1  0.0000000  1.6038667  3
     52    148    139    141     1  0.0000000  1.6038667  3
     53     52    148    139     1  0.0000000  1.6038667  3
     54     52    148    139     1  0.0000000  1.6038667  3
     55    178    169    170     1  0.0000000  1.6038667  3
     55    178    169    171     1  0.0000000  1.6038667  3
     56     55    178    169     1  0.0000000  1.6038667  3
     57     55    178    169     1  0.0000000  1.6038667  3
     60     61     73     74     1  0.0000000  0.6508444  3
     60     61     73     75     1  0.0000000  0.6508444  3
     60     64     76     77     1  0.0000000  0.6508444  3
     60     64     76     78     1  0.0000000  0.6508444  3
     60     67     70     71     1  0.0000000  0.6508444  3
     60     67     70     72     1  0.0000000  0.6508444  3
     61     60     64     65     1  0.0000000  0.6508444  3
     61     60     64     66     1  0.0000000  0.6508444  3
     61     60     67     68     1  0.0000000  0.6508444  3
     61     60     67     69     1  0.0000000  0.6508444  3
     61     73     85     86     1  0.0000000  0.6508444  3
     61     73     85     87     1  0.0000000  0.6508444  3
     62     61     60     64     1  0.0000000  0.6508444  3
     62     61     60     67     1  0.0000000  0.6508444  3
     62     61     60     89     1  0.0000000  0.6508444  3
     62     61     73     85     1  0.0000000  0.6508444  3
     62     61     73     74     1  0.0000000  0.6508444  3
     62     61     73     75     1  0.0000000  0.6508444  3
     63     61     60     64     1  0.0000000  0.6508444  3
     63     61     60     67     1  0.0000000  0.6508444  3
     63     61     60     89     1  0.0000000  0.6508444  3
     63     61     73     85     1  0.0000000  0.6508444  3
     63     61     73     74     1  0.0000000  0.6508444  3
     63     61     73     75     1  0.0000000  0.6508444  3
     64     60     67     68     1  0.0000000  0.6508444  3
     64     60     67     69     1  0.0000000  0.6508444  3
     64     76     82     83     1  0.0000000  0.6508444  3
     64     76     82     84     1  0.0000000  0.6508444  3
     65     64     60     67     1  0.0000000  0.6508444  3
     65     64     60     89     1  0.0000000  0.6508444  3
     65     64     76     82     1  0.0000000  0.6508444  3
     65     64     76     77     1  0.0000000  0.6508444  3
     65     64     76     78     1  0.0000000  0.6508444  3
     66     64     60     67     1  0.0000000  0.6508444  3
     66     64     60     89     1  0.0000000  0.6508444  3
     66     64     76     82     1  0.0000000  0.6508444  3
     66     64     76     77     1  0.0000000  0.6508444  3
     66     64     76     78     1  0.0000000  0.6508444  3
     67     70     79     80     1  0.0000000  0.6508444  3
     67     70     79     81     1  0.0000000  0.6508444  3
     68     67     60     89     1  0.0000000  0.6508444  3
     68     67     70     79     1  0.0000000  0.6508444  3
     68     67     70     71     1  0.0000000  0.6508444  3
     68     67     70     72     1  0.0000000  0.6508444  3
     69     67     60     89     1  0.0000000  0.6508444  3
     69     67     70     79     1  0.0000000  0.6508444  3
     69     67     70     71     1  0.0000000  0.6508444  3
     69     67     70     72     1  0.0000000  0.6508444  3
     70     67     60     89     1  0.0000000  0.6508444  3
     71     70     79     88     1  0.0000000  1.0460000  1
     71     70     79     88     1  0.0000000  0.0000000  3
     71     70     79     80     1  0.0000000  0.6508444  3
     71     70     79     81     1  0.0000000  0.6508444  3
     72     70     79     88     1  0.0000000  1.0460000  1
     72     70     79     88     1  0.0000000  0.0000000  3
     72     70     79     80     1  0.0000000  0.6508444  3
     72     70     79     81     1  0.0000000  0.6508444  3
     73     61     60     89     1  0.0000000  0.6508444  3
     74     73     85    238     1  0.0000000  1.0460000  1
     74     73     85    238     1  0.0000000  0.0000000  3
     74     73     85     86     1  0.0000000  0.6508444  3
     74     73     85     87     1  0.0000000  0.6508444  3
     75     73     85    238     1  0.0000000  1.0460000  1
     75     73     85    238     1  0.0000000  0.0000000  3
     75     73     85     86     1  0.0000000  0.6508444  3
     75     73     85     87     1  0.0000000  0.6508444  3
     76     64     60     89     1  0.0000000  0.6508444  3
     77     76     82    208     1  0.0000000  1.0460000  1
     77     76     82    208     1  0.0000000  0.0000000  3
     77     76     82     83     1  0.0000000  0.6508444  3
     77     76     82     84     1  0.0000000  0.6508444  3
     78     76     82    208     1  0.0000000  1.0460000  1
     78     76     82    208     1  0.0000000  0.0000000  3
     78     76     82     83     1  0.0000000  0.6508444  3
     78     76     82     84     1  0.0000000  0.6508444  3
     82    208    199    200     1  0.0000000  1.6038667  3
     82    208    199    201     1  0.0000000  1.6038667  3
     83     82    208    199     1  0.0000000  1.6038667  3
     84     82    208    199     1  0.0000000  1.6038667  3
     85    238    229    230     1  0.0000000  1.6038667  3
     85    238    229    231     1  0.0000000  1.6038667  3
     86     85    238    229     1  0.0000000  1.6038667  3
     87     85    238    229     1  0.0000000  1.6038667  3
     90     91    103    104     1  0.0000000  0.6508444  3
     90     91    103    105     1  0.0000000  0.6508444  3
     90     94    106    107     1  0.0000000  0.6508444  3
     90     94    106    108     1  0.0000000  0.6508444  3
     90     97    100    101     1  0.0000000  0.6508444  3
     90     97    100    102     1  0.0000000  0.6508444  3
     91     90     94     95     1  0.0000000  0.6508444  3
     91     90     94     96     1  0.0000000  0.6508444  3
     91     90     97     98     1  0.0000000  0.6508444  3
     91     90     97     99     1  0.0000000  0.6508444  3
     91    103    115    116     1  0.0000000  0.6508444  3
     91    103    115    117     1  0.0000000  0.6508444  3
     92     91     90     94     1  0.0000000  0.6508444  3
     92     91     90     97     1  0.0000000  0.6508444  3
     92     91     90    119     1  0.0000000  0.6508444  3
     92     91    103    115     1  0.0000000  0.6508444  3
     92     91    103    104     1  0.0000000  0.6508444  3
     92     91    103    105     1  0.0000000  0.6508444  3
     93     91     90     94     1  0.0000000  0.6508444  3
     93     91     90     97     1  0.0000000  0.6508444  3
     93     91     90    119     1  0.0000000  0.6508444  3
     93     91    103    115     1  0.0000000  0.6508444  3
     93     91    103    104     1  0.0000000  0.6508444  3
     93     91    103    105     1  0.0000000  0.6508444  3
     94     90     97     98     1  0.0000000  0.6508444  3
     94     90     97     99     1  0.0000000  0.6508444  3
     94    106    112    113     1  0.0000000  0.6508444  3
     94    106    112    114     1  0.0000000  0.6508444  3
     95     94     90     97     1  0.0000000  0.6508444  3
     95     94     90    119     1  0.0000000  0.6508444  3
     95     94    106    112     1  0.0000000  0.6508444  3
     95     94    106    107     1  0.0000000  0.6508444  3
     95     94    106    108     1  0.0000000  0.6508444  3
     96     94     90     97     1  0.0000000  0.6508444  3
     96     94     90    119     1  0.0000000  0.6508444  3
     96     94    106    112     1  0.0000000  0.6508444  3
     96     94    106    107     1  0.0000000  0.6508444  3
     96     94    106    108     1  0.0000000  0.6508444  3
     97    100    109    110     1  0.0000000  0.6508444  3
     97    100    109    111     1  0.0000000  0.6508444  3
     98     97     90    119     1  0.0000000  0.6508444  3
     98     97    100    109     1  0.0000000  0.6508444  3
     98     97    100    101     1  0.0000000  0.6508444  3
     98     97    100    102     1  0.0000000  0.6508444  3
     99     97     90    119     1  0.0000000  0.6508444  3
     99     97    100    109     1  0.0000000  0.6508444  3
     99     97    100    101     1  0.0000000  0.6508444  3
     99     97    100    102     1  0.0000000  0.6508444  3
    100     97     90    119     1  0.0000000  0.6508444  3
    101    100    109    118     1  0.0000000  1.0460000  1
    101    100    109    118     1  0.0000000  0.0000000  3
    101    100    109    110     1  0.0000000  0.6508444  3
    101    100    109    111     1  0.0000000  0.6508444  3
    102    100    109    118     1  0.0000000  1.0460000  1
    102    100    109    118     1  0.0000000  0.0000000  3
    102    100    109    110     1  0.0000000  0.6508444  3
    102    100    109    111     1  0.0000000  0.6508444  3
    103     91     90    119     1  0.0000000  0.6508444  3
    104    103    115    298     1  0.0000000  1.0460000  1
    104    103    115    298     1  0.0000000  0.0000000  3
    104    103    115    116     1  0.0000000  0.6508444  3
    104    103    115    117     1  0.0000000  0.6508444  3
    105    103    115    298     1  0.0000000  1.0460000  1
    105    103    115    298     1  0.0000000  0.0000000  3
    105    103    115    116     1  0.0000000  0.6508444  3
    105    103    115    117     1  0.0000000  0.6508444  3
    106     94     90    119     1  0.0000000  0.6508444  3
    107    106    112    268     1  0.0000000  1.0460000  1
    107    106    112    268     1  0.0000000  0.0000000  3
    107    106    112    113     1  0.0000000  0.6508444  3
    107    106    112    114     1  0.0000000  0.6508444  3
    108    106    112    268     1  0.0000000  1.0460000  1
    108    106    112    268     1  0.0000000  0.0000000  3
    108    106    112    113     1  0.0000000  0.6508444  3
    108    106    112    114     1  0.0000000  0.6508444  3
    112    268    259    260     1  0.0000000  1.6038667  3
    112    268    259    261     1  0.0000000  1.6038667  3
    113    112    268    259     1  0.0000000  1.6038667  3
    114    112    268    259     1  0.0000000  1.6038667  3
    115    298    289    290     1  0.0000000  1.6038667  3
    115    298    289    291     1  0.0000000  1.6038667  3
    116    115    298    289     1  0.0000000  1.6038667  3
    117    115    298    289     1  0.0000000  1.6038667  3
    120    121    133    134     1  0.0000000  0.6508444  3
    120    121    133    135     1  0.0000000  0.6508444  3
    120    124    136    137     1  0.0000000  0.6508444  3
    120    124    136    138     1  0.0000000  0.6508444  3
    120    127    130    131     1  0.0000000  0.6508444  3
    120    127    130    132     1  0.0000000  0.6508444  3
    121    120    124    125     1  0.0000000  0.6508444  3
    121    120    124    126     1  0.0000000  0.6508444  3
    121    120    127    128     1  0.0000000  0.6508444  3
    121    120    127    129     1  0.0000000  0.6508444  3
    121    133    145    146     1  0.0000000  0.6508444  3
    121    133    145    147     1  0.0000000  0.6508444  3
    122    121    120    124     1  0.0000000  0.6508444  3
    122    121    120    127     1  0.0000000  0.6508444  3
    122    121    120    149     1  0.0000000  0.6508444  3
    122    121    133    145     1  0.0000000  0.6508444  3
    122    121    133    134     1  0.0000000  0.6508444  3
    122    121    133    135     1  0.0000000  0.6508444  3
    123    121    120    124     1  0.0000000  0.6508444  3
    123    121    120    127     1  0.0000000  0.6508444  3
    123    121    120    149     1  0.0000000  0.6508444  3
    123    121    133    145     1  0.0000000  0.6508444  3
    123    121    133    134     1  0.0000000  0.6508444  3
    123    121    133    135     1  0.0000000  0.6508444  3
    124    120    127    128     1  0.0000000  0.6508444  3
    124    120    127    129     1  0.0000000  0.6508444  3
    124    136    142    143     1  0.0000000  0.6508444  3
    124    136    142    144     1  0.0000000  0.6508444  3
    125    124    120    127     1  0.0000000  0.6508444  3
    125    124    120    149     1  0.0000000  0.6508444  3
    125    124    136    142     1  0.0000000  0.6508444  3
    125    124    136    137     1  0.0000000  0.6508444  3
    125    124    136    138     1  0.0000000  0.6508444  3
    126    124    120    127     1  0.0000000  0.6508444  3
    126    124    120    149     1  0.0000000  0.6508444  3
    126    124    136    142     1  0.0000000  0.6508444  3
    126    124    136    137     1  0.0000000  0.6508444  3
    126    124    136    138     1  0.0000000  0.6508444  3
    127    130    139    140     1  0.0000000  0.6508444  3
    127    130    139    141     1  0.0000000  0.6508444  3
    128    127    120    149     1  0.0000000  0.6508444  3
    128    127    130    139     1  0.0000000  0.6508444  3
    128    127    130    131     1  0.0000000  0.6508444  3
    128    127    130    132     1  0.0000000  0.6508444  3
    129    127    120    149     1  0.0000000  0.6508444  3
    129    127    130    139     1  0.0000000  0.6508444  3
    129    127    130    131     1  0.0000000  0.6508444  3
    129    127    130    132     1  0.0000000  0.6508444  3
    130    127    120    149     1  0.0000000  0.6508444  3
    131    130    139    148     1  0.0000000  1.0460000  1
    131    130    139    148     1  0.0000000  0.0000000  3
    131    130    139    140     1  0.0000000  0.6508444  3
    131    130    139    141     1  0.0000000  0.6508444  3
    132    130    139    148     1  0.0000000  1.0460000  1
    132    130    139    148     1  0.0000000  0.0000000  3
    132    130    139    140     1  0.0000000  0.6508444  3
    132    130    139    141     1  0.0000000  0.6508444  3
    133    121    120    149     1  0.0000000  0.6508444  3
    134    133    145    358     1  0.0000000  1.0460000  1
    134    133    145    358     1  0.0000000  0.0000000  3
    134    133    145    146     1  0.0000000  0.6508444  3
    134    133    145    147     1  0.0000000  0.6508444  3
    135    133    145    358     1  0.0000000  1.0460000  1
    135    133    145    358     1  0.0000000  0.0000000  3
    135    133    145    146     1  0.0000000  0.6508444  3
    135    133    145    147     1  0.0000000  0.6508444  3
    136    124    120    149     1  0.0000000  0.6508444  3
    137    136    142    328     1  0.0000000  1.0460000  1
    137    136    142    328     1  0.0000000  0.0000000  3
    137    136    142    143     1  0.0000000  0.6508444  3
    137    136    142    144     1  0.0000000  0.6508444  3
    138    136    142    328     1  0.0000000  1.0460000  1
    138    136    142    328     1  0.0000000  0.0000000  3
    138    136    142    143     1  0.0000000  0.6508444  3
    138    136    142    144     1  0.0000000  0.6508444  3
    142    328    319    320     1  0.0000000  1.6038667  3
    142    328    319    321     1  0.0000000  1.6038667  3
    143    142    328    319     1  0.0000000  1.6038667  3
    144    142    328    319     1  0.0000000  1.6038667  3
    145    358    349    350     1  0.0000000  1.6038667  3
    145    358    349    351     1  0.0000000  1.6038667  3
    146    145    358    349     1  0.0000000  1.6038667  3
    147    145    358    349     1  0.0000000  1.6038667  3
    150    151    163    164     1  0.0000000  0.6508444  3
    150    151    163    165     1  0.0000000  0.6508444  3
    150    154    166    167     1  0.0000000  0.6508444  3
    150    154    166    168     1  0.0000000  0.6508444  3
    150    157    160    161     1  0.0000000  0.6508444  3
    150    157    160    162     1  0.0000000  0.6508444  3
    151    150    154    155     1  0.0000000  0.6508444  3
    151    150    154    156     1  0.0000000  0.6508444  3
    151    150    157    158     1  0.0000000  0.6508444  3
    151    150    157    159     1  0.0000000  0.6508444  3
    151    163    175    176     1  0.0000000  0.6508444  3
    151    163    175    177     1  0.0000000  0.6508444  3
    152    151    150    154     1  0.0000000  0.6508444  3
    152    151    150    157     1  0.0000000  0.6508444  3
    152    151    150    179     1  0.0000000  0.6508444  3
    152    151    163    175     1  0.0000000  0.6508444  3
    152    151    163    164     1  0.0000000  0.6508444  3
    152    151    163    165     1  0.0000000  0.6508444  3
    153    151    150    154     1  0.0000000  0.6508444  3
    153    151    150    157     1  0.0000000  0.6508444  3
    153    151    150    179     1  0.0000000  0.6508444  3
    153    151    163    175     1  0.0000000  0.6508444  3
    153    151    163    164     1  0.0000000  0.6508444  3
    153    151    163    165     1  0.0000000  0.6508444  3
    154    150    157    158     1  0.0000000  0.6508444  3
    154    150    157    159     1  0.0000000  0.6508444  3
    154    166    172    173     1  0.0000000  0.6508444  3
    154    166    172    174     1  0.0000000  0.6508444  3
    155    154    150    157     1  0.0000000  0.6508444  3
    155    154    150    179     1  0.0000000  0.6508444  3
    155    154    166    172     1  0.0000000  0.6508444  3
    155    154    166    167     1  0.0000000  0.6508444  3
    155    154    166    168     1  0.0000000  0.6508444  3
    156    154    150    157     1  0.0000000  0.6508444  3
    156    154    150    179     1  0.0000000  0.6508444  3
    156    154    166    172     1  0.0000000  0.6508444  3
    156    154    166    167     1  0.0000000  0.6508444  3
    156    154    166    168     1  0.0000000  0.6508444  3
    157    160    169    170     1  0.0000000  0.6508444  3
    157    160    169    171     1  0.0000000  0.6508444  3
    158    157    150    179     1  0.0000000  0.6508444  3
    158    157    160    169     1  0.0000000  0.6508444  3
    158    157    160    161     1  0.0000000  0.6508444  3
    158    157    160    162     1  0.0000000  0.6508444  3
    159    157    150    179     1  0.0000000  0.6508444  3
    159    157    160    169     1  0.0000000  0.6508444  3
    159    157    160    161     1  0.0000000  0.6508444  3
    159    157    160    162     1  0.0000000  0.6508444  3
    160    157    150    179     1  0.0000000  0.6508444  3
    161    160    169    178     1  0.0000000  1.0460000  1
    161    160    169    178     1  0.0000000  0.0000000  3
    161    160    169    170     1  0.0000000  0.6508444  3
    161    160    169    171     1  0.0000000  0.6508444  3
    162    160    169    178     1  0.0000000  1.0460000  1
    162    160    169    178     1  0.0000000  0.0000000  3
    162    160    169    170     1  0.0000000  0.6508444  3
    162    160    169    171     1  0.0000000  0.6508444  3
    163    151    150    179     1  0.0000000  0.6508444  3
    164    163    175    418     1  0.0000000  1.0460000  1
    164    163    175    418     1  0.0000000  0.0000000  3
    164    163    175    176     1  0.0000000  0.6508444  3
    164    163    175    177     1  0.0000000  0.6508444  3
    165    163    175    418     1  0.0000000  1.0460000  1
    165    163    175    418     1  0.0000000  0.0000000  3
    165    163    175    176     1  0.0000000  0.6508444  3
    165    163    175    177     1  0.0000000  0.6508444  3
    166    154    150    179     1  0.0000000  0.6508444  3
    167    166    172    388     1  0.0000000  1.0460000  1
    167    166    172    388     1  0.0000000  0.0000000  3
    167    166    172    173     1  0.0000000  0.6508444  3
    167    166    172    174     1  0.0000000  0.6508444  3
    168    166    172    388     1  0.0000000  1.0460000  1
    168    166    172    388     1  0.0000000  0.0000000  3
    168    166    172    173     1  0.0000000  0.6508444  3
    168    166    172    174     1  0.0000000  0.6508444  3
    172    388    379    380     1  0.0000000  1.6038667  3
    172    388    379    381     1  0.0000000  1.6038667  3
    173    172    388    379     1  0.0000000  1.6038667  3
    174    172    388    379     1  0.0000000  1.6038667  3
    175    418    409    410     1  0.0000000  1.6038667  3
    175    418    409    411     1  0.0000000  1.6038667  3
    176    175    418    409     1  0.0000000  1.6038667  3
    177    175    418    409     1  0.0000000  1.6038667  3
    180    181    193    194     1  0.0000000  0.6508444  3
    180    181    193    195     1  0.0000000  0.6508444  3
    180    184    196    197     1  0.0000000  0.6508444  3
    180    184    196    198     1  0.0000000  0.6508444  3
    180    187    190    191     1  0.0000000  0.6508444  3
    180    187    190    192     1  0.0000000  0.6508444  3
    181    180    184    185     1  0.0000000  0.6508444  3
    181    180    184    186     1  0.0000000  0.6508444  3
    181    180    187    188     1  0.0000000  0.6508444  3
    181    180    187    189     1  0.0000000  0.6508444  3
    181    193    205    206     1  0.0000000  0.6508444  3
    181    193    205    207     1  0.0000000  0.6508444  3
    182    181    180    184     1  0.0000000  0.6508444  3
    182    181    180    187     1  0.0000000  0.6508444  3
    182    181    180    209     1  0.0000000  0.6508444  3
    182    181    193    205     1  0.0000000  0.6508444  3
    182    181    193    194     1  0.0000000  0.6508444  3
    182    181    193    195     1  0.0000000  0.6508444  3
    183    181    180    184     1  0.0000000  0.6508444  3
    183    181    180    187     1  0.0000000  0.6508444  3
    183    181    180    209     1  0.0000000  0.6508444  3
    183    181    193    205     1  0.0000000  0.6508444  3
    183    181    193    194     1  0.0000000  0.6508444  3
    183    181    193    195     1  0.0000000  0.6508444  3
    184    180    187    188     1  0.0000000  0.6508444  3
    184    180    187    189     1  0.0000000  0.6508444  3
    184    196    202    203     1  0.0000000  0.6508444  3
    184    196    202    204     1  0.0000000  0.6508444  3
    185    184    180    187     1  0.0000000  0.6508444  3
    185    184    180    209     1  0.0000000  0.6508444  3
    185    184    196    202     1  0.0000000  0.6508444  3
    185    184    196    197     1  0.0000000  0.6508444  3
    185    184    196    198     1  0.0000000  0.6508444  3
    186    184    180    187     1  0.0000000  0.6508444  3
    186    184    180    209     1  0.0000000  0.6508444  3
    186    184    196    202     1  0.0000000  0.6508444  3
    186    184    196    197     1  0.0000000  0.6508444  3
    186    184    196    198     1  0.0000000  0.6508444  3
    187    190    199    200     1  0.0000000  0.6508444  3
    187    190    199    201     1  0.0000000  0.6508444  3
    188    187    180    209     1  0.0000000  0.6508444  3
    188    187    190    199     1  0.0000000  0.6508444  3
    188    187    190    191     1  0.0000000  0.6508444  3
    188    187    190    192     1  0.0000000  0.6508444  3
    189    187    180    209     1  0.0000000  0.6508444  3
    189    187    190    199     1  0.0000000  0.6508444  3
    189    187    190    191     1  0.0000000  0.6508444  3
    189    187    190    192     1  0.0000000  0.6508444  3
    190    187    180    209     1  0.0000000  0.6508444  3
    191    190    199    208     1  0.0000000  1.0460000  1
    191    190    199    208     1  0.0000000  0.0000000  3
    191    190    199    200     1  0.0000000  0.6508444  3
    191    190    199    201     1  0.0000000  0.6508444  3
    192    190    199    208     1  0.0000000  1.0460000  1
    192    190    199    208     1  0.0000000  0.0000000  3
    192    190    199    200     1  0.0000000  0.6508444  3
    192    190    199    201     1  0.0000000  0.6508444  3
    193    181    180    209     1  0.0000000  0.6508444  3
    194    193    205    478     1  0.0000000  1.0460000  1
    194    193    205    478     1  0.0000000  0.0000000  3
    194    193    205    206     1  0.0000000  0.6508444  3
    194    193    205    207     1  0.0000000  0.6508444  3
    195    193    205    478     1  0.0000000  1.0460000  1
    195    193    205    478     1  0.0000000  0.0000000  3
    195    193    205    206     1  0.0000000  0.6508444  3
    195    193    205    207     1  0.0000000  0.6508444  3
    196    184    180    209     1  0.0000000  0.6508444  3
    197    196    202    448     1  0.0000000  1.0460000  1
    197    196    202    448     1  0.0000000  0.0000000  3
    197    196    202    203     1  0.0000000  0.6508444  3
    197    196    202    204     1  0.0000000  0.6508444  3
    198    196    202    448     1  0.0000000  1.0460000  1
    198    196    202    448     1  0.0000000  0.0000000  3
    198    196    202    203     1  0.0000000  0.6508444  3
    198    196    202    204     1  0.0000000  0.6508444  3
    202    448    439    440     1  0.0000000  1.6038667  3
    202    448    439    441     1  0.0000000  1.6038667  3
    203    202    448    439     1  0.0000000  1.6038667  3
    204    202    448    439     1  0.0000000  1.6038667  3
    205    478    469    470     1  0.0000000  1.6038667  3
    205    478    469    471     1  0.0000000  1.6038667  3
    206    205    478    469     1  0.0000000  1.6038667  3
    207    205    478    469     1  0.0000000  1.6038667  3
    210    211    223    224     1  0.0000000  0.6508444  3
    210    211    223    225     1  0.0000000  0.6508444  3
    210    214    226    227     1  0.0000000  0.6508444  3
    210    214    226    228     1  0.0000000  0.6508444  3
    210    217    220    221     1  0.0000000  0.6508444  3
    210    217    220    222     1  0.0000000  0.6508444  3
    211    210    214    215     1  0.0000000  0.6508444  3
    211    210    214    216     1  0.0000000  0.6508444  3
    211    210    217    218     1  0.0000000  0.6508444  3
    211    210    217    219     1  0.0000000  0.6508444  3
    211    223    235    236     1  0.0000000  0.6508444  3
    211    223    235    237     1  0.0000000  0.6508444  3
    212    211    210    214     1  0.0000000  0.6508444  3
    212    211    210    217     1  0.0000000  0.6508444  3
    212    211    210    239     1  0.0000000  0.6508444  3
    212    211    223    235     1  0.0000000  0.6508444  3
    212    211    223    224     1  0.0000000  0.6508444  3
    212    211    223    225     1  0.0000000  0.6508444  3
    213    211    210    214     1  0.0000000  0.6508444  3
    213    211    210    217     1  0.0000000  0.6508444  3
    213    211    210    239     1  0.0000000  0.6508444  3
    213    211    223    235     1  0.0000000  0.6508444  3
    213    211    223    224     1  0.0000000  0.6508444  3
    213    211    223    225     1  0.0000000  0.6508444  3
    214    210    217    218     1  0.0000000  0.6508444  3
    214    210    217    219     1  0.0000000  0.6508444  3
    214    226    232    233     1  0.0000000  0.6508444  3
    214    226    232    234     1  0.0000000  0.6508444  3
    215    214    210    217     1  0.0000000  0.6508444  3
    215    214    210    239     1  0.0000000  0.6508444  3
    215    214    226    232     1  0.0000000  0.6508444  3
    215    214    226    227     1  0.0000000  0.6508444  3
    215    214    226    228     1  0.0000000  0.6508444  3
    216    214    210    217     1  0.0000000  0.6508444  3
    216    214    210    239     1  0.0000000  0.6508444  3
    216    214    226    232     1  0.0000000  0.6508444  3
    216    214    226    227     1  0.0000000  0.6508444  3
    216    214    226    228     1  0.0000000  0.6508444  3
    217    220    229    230     1  0.0000000  0.6508444  3
    217    220    229    231     1  0.0000000  0.6508444  3
    218    217    210    239     1  0.0000000  0.6508444  3
    218    217    220    229     1  0.0000000  0.6508444  3
    218    217    220    221     1  0.0000000  0.6508444  3
    218    217    220    222     1  0.0000000  0.6508444  3
    219    217    210    239     1  0.0000000  0.6508444  3
    219    217    220    229     1  0.0000000  0.6508444  3
    219    217    220    221     1  0.0000000  0.6508444  3
    219    217    220    222     1  0.0000000  0.6508444  3
    220    217    210    239     1  0.0000000  0.6508444  3
    221    220    229    238     1  0.0000000  1.0460000  1
    221    220    229    238     1  0.0000000  0.0000000  3
    221    220    229    230     1  0.0000000  0.6508444  3
    221    220    229    231     1  0.0000000  0.6508444  3
    222    220    229    238     1  0.0000000  1.0460000  1
    222    220    229    238     1  0.0000000  0.0000000  3
    222    220    229    230     1  0.0000000  0.6508444  3
    222    220    229    231     1  0.0000000  0.6508444  3
    223    211    210    239     1  0.0000000  0.6508444  3
    224    223    235    538     1  0.0000000  1.0460000  1
    224    223    235    538     1  0.0000000  0.0000000  3
    224    223    235    236     1  0.0000000  0.6508444  3
    224    223    235    237     1  0.0000000  0.6508444  3
    225    223    235    538     1  0.0000000  1.0460000  1
    225    223    235    538     1  0.0000000  0.0000000  3
    225    223    235    236     1  0.0000000  0.6508444  3
    225    223    235    237     1  0.0000000  0.6508444  3
    226    214    210    239     1  0.0000000  0.6508444  3
    227    226    232    508     1  0.0000000  1.0460000  1
    227    226    232    508     1  0.0000000  0.0000000  3
    227    226    232    233     1  0.0000000  0.6508444  3
    227    226    232    234     1  0.0000000  0.6508444  3
    228    226    232    508     1  0.0000000  1.0460000  1
    228    226    232    508     1  0.0000000  0.0000000  3
    228    226    232    233     1  0.0000000  0.6508444  3
    228    226    232    234     1  0.0000000  0.6508444  3
    232    508    499    500     1  0.0000000  1.6038667  3
    232    508    499    501     1  0.0000000  1.6038667  3
    233    232    508    499     1  0.0000000  1.6038667  3
    234    232    508    499     1  0.0000000  1.6038667  3
    235    538    529    530     1  0.0000000  1.6038667  3
    235    538    529    531     1  0.0000000  1.6038667  3
    236    235    538    529     1  0.0000000  1.6038667  3
    237    235    538    529     1  0.0000000  1.6038667  3
    240    241    253    254     1  0.0000000  0.6508444  3
    240    241    253    255     1  0.0000000  0.6508444  3
    240    244    256    257     1  0.0000000  0.6508444  3
    240    244    256    258     1  0.0000000  0.6508444  3
    240    247    250    251     1  0.0000000  0.6508444  3
    240    247    250    252     1  0.0000000  0.6508444  3
    241    240    244    245     1  0.0000000  0.6508444  3
    241    240    244    246     1  0.0000000  0.6508444  3
    241    240    247    248     1  0.0000000  0.6508444  3
    241    240    247    249     1  0.0000000  0.6508444  3
    241    253    265    266     1  0.0000000  0.6508444  3
    241    253    265    267     1  0.0000000  0.6508444  3
    242    241    240    244     1  0.0000000  0.6508444  3
    242    241    240    247     1  0.0000000  0.6508444  3
    242    241    240    269     1  0.0000000  0.6508444  3
    242    241    253    265     1  0.0000000  0.6508444  3
    242    241    253    254     1  0.0000000  0.6508444  3
    242    241    253    255     1  0.0000000  0.6508444  3
    243    241    240    244     1  0.0000000  0.6508444  3
    243    241    240    247     1  0.0000000  0.6508444  3
    243    241    240    269     1  0.0000000  0.6508444  3
    243    241    253    265     1  0.0000000  0.6508444  3
    243    241    253    254     1  0.0000000  0.6508444  3
    243    241    253    255     1  0.0000000  0.6508444  3
    244    240    247    248     1  0.0000000  0.6508444  3
    244    240    247    249     1  0.0000000  0.6508444  3
    244    256    262    263     1  0.0000000  0.6508444  3
    244    256    262    264     1  0.0000000  0.6508444  3
    245    244    240    247     1  0.0000000  0.6508444  3
    245    244    240    269     1  0.0000000  0.6508444  3
    245    244    256    262     1  0.0000000  0.6508444  3
    245    244    256    257     1  0.0000000  0.6508444  3
    245    244    256    258     1  0.0000000  0.6508444  3
    246    244    240    247     1  0.0000000  0.6508444  3
    246    244    240    269     1  0.0000000  0.6508444  3
    246    244    256    262     1  0.0000000  0.6508444  3
    246    244    256    257     1  0.0000000  0.6508444  3
    246    244    256    258     1  0.0000000  0.6508444  3
    247    250    259    260     1  0.0000000  0.6508444  3
    247    250    259    261     1  0.0000000  0.6508444  3
    248    247    240    269     1  0.0000000  0.6508444  3
    248    247    250    259     1  0.0000000  0.6508444  3
    248    247    250    251     1  0.0000000  0.6508444  3
    248    247    250    252     1  0.0000000  0.6508444  3
    249    247    240    269     1  0.0000000  0.6508444  3
    249    247    250    259     1  0.0000000  0.6508444  3
    249    247    250    251     1  0.0000000  0.6508444  3
    249    247    250    252     1  0.0000000  0.6508444  3
    250    247    240    269     1  0.0000000  0.6508444  3
    251    250    259    268     1  0.0000000  1.0460000  1
    251    250    259    268     1  0.0000000  0.0000000  3
    251    250    259    260     1  0.0000000  0.6508444  3
    251    250    259    261     1  0.0000000  0.6508444  3
    252    250    259    268     1  0.0000000  1.0460000  1
    252    250    259    268     1  0.0000000  0.0000000  3
    252    250    259    260     1  0.0000000  0.6508444  3
    252    250    259    261     1  0.0000000  0.6508444  3
    253    241    240    269     1  0.0000000  0.6508444  3
    254    253    265    598     1  0.0000000  1.0460000  1
    254    253    265    598     1  0.0000000  0.0000000  3
    254    253    265    266     1  0.0000000  0.6508444  3
    254    253    265    267     1  0.0000000  0.6508444  3
    255    253    265    598     1  0.0000000  1.0460000  1
    255    253    265    598     1  0.0000000  0.0000000  3
    255    253    265    266     1  0.0000000  0.6508444  3
    255    253    265    267     1  0.0000000  0.6508444  3
    256    244    240    269     1  0.0000000  0.6508444  3
    257    256    262    568     1  0.0000000  1.0460000  1
    257    256    262    568     1  0.0000000  0.0000000  3
    257    256    262    263     1  0.0000000  0.6508444  3
    257    256    262    264     1  0.0000000  0.6508444  3
    258    256    262    568     1  0.0000000  1.0460000  1
    258    256    262    568     1  0.0000000  0.0000000  3
    258    256    262    263     1  0.0000000  0.6508444  3
    258    256    262    264     1  0.0000000  0.6508444  3
    262    568    559    560     1  0.0000000  1.6038667  3
    262    568    559    561     1  0.0000000  1.6038667  3
    263    262    568    559     1  0.0000000  1.6038667  3
    264    262    568    559     1  0.0000000  1.6038667  3
    265    598    589    590     1  0.0000000  1.6038667  3
    265    598    589    591     1  0.0000000  1.6038667  3
    266    265    598    589     1  0.0000000  1.6038667  3
    267    265    598    589     1  0.0000000  1.6038667  3
    270    271    283    284     1  0.0000000  0.6508444  3
    270    271    283    285     1  0.0000000  0.6508444  3
    270    274    286    287     1  0.0000000  0.6508444  3
    270    274    286    288     1  0.0000000  0.6508444  3
    270    277    280    281     1  0.0000000  0.6508444  3
    270    277    280    282     1  0.0000000  0.6508444  3
    271    270    274    275     1  0.0000000  0.6508444  3
    271    270    274    276     1  0.0000000  0.6508444  3
    271    270    277    278     1  0.0000000  0.6508444  3
    271    270    277    279     1  0.0000000  0.6508444  3
    271    283    295    296     1  0.0000000  0.6508444  3
    271    283    295    297     1  0.0000000  0.6508444  3
    272    271    270    274     1  0.0000000  0.6508444  3
    272    271    270    277     1  0.0000000  0.6508444  3
    272    271    270    299     1  0.0000000  0.6508444  3
    272    271    283    295     1  0.0000000  0.6508444  3
    272    271    283    284     1  0.0000000  0.6508444  3
    272    271    283    285     1  0.0000000  0.6508444  3
    273    271    270    274     1  0.0000000  0.6508444  3
    273    271    270    277     1  0.0000000  0.6508444  3
    273    271    270    299     1  0.0000000  0.6508444  3
    273    271    283    295     1  0.0000000  0.6508444  3
    273    271    283    284     1  0.0000000  0.6508444  3
    273    271    283    285     1  0.0000000  0.6508444  3
    274    270    277    278     1  0.0000000  0.6508444  3
    274    270    277    279     1  0.0000000  0.6508444  3
    274    286    292    293     1  0.0000000  0.6508444  3
    274    286    292    294     1  0.0000000  0.6508444  3
    275    274    270    277     1  0.0000000  0.6508444  3
    275    274    270    299     1  0.0000000  0.6508444  3
    275    274    286    292     1  0.0000000  0.6508444  3
    275    274    286    287     1  0.0000000  0.6508444  3
    275    274    286    288     1  0.0000000  0.6508444  3
    276    274    270    277     1  0.0000000  0.6508444  3
    276    274    270    299     1  0.0000000  0.6508444  3
    276    274    286    292     1  0.0000000  0.6508444  3
    276    274    286    287     1  0.0000000  0.6508444  3
    276    274    286    288     1  0.0000000  0.6508444  3
    277    280    289    290     1  0.0000000  0.6508444  3
    277    280    289    291     1  0.0000000  0.6508444  3
    278    277    270    299     1  0.0000000  0.6508444  3
    278    277    280    289     1  0.0000000  0.6508444  3
    278    277    280    281     1  0.0000000  0.6508444  3
    278    277    280    282     1  0.0000000  0.6508444  3
    279    277    270    299     1  0.0000000  0.6508444  3
    279    277    280    289     1  0.0000000  0.6508444  3
    279    277    280    281     1  0.0000000  0.6508444  3
    279    277    280    282     1  0.0000000  0.6508444  3
    280    277    270    299     1  0.0000000  0.6508444  3
    281    280    289    298     1  0.0000000  1.0460000  1
    281    280    289    298     1  0.0000000  0.0000000  3
    281    280    289    290     1  0.0000000  0.6508444  3
    281    280    289    291     1  0.0000000  0.6508444  3
    282    280    289    298     1  0.0000000  1.0460000  1
    282    280    289    298     1  0.0000000  0.0000000  3
    282    280    289    290     1  0.0000000  0.6508444  3
    282    280    289    291     1  0.0000000  0.6508444  3
    283    271    270    299     1  0.0000000  0.6508444  3
    284    283    295    658     1  0.0000000  1.0460000  1
    284    283    295    658     1  0.0000000  0.0000000  3
    284    283    295    296     1  0.0000000  0.6508444  3
    284    283    295    297     1  0.0000000  0.6508444  3
    285    283    295    658     1  0.0000000  1.0460000  1
    285    283    295    658     1  0.0000000  0.0000000  3
    285    283    295    296     1  0.0000000  0.6508444  3
    285    283    295    297     1  0.0000000  0.6508444  3
    286    274    270    299     1  0.0000000  0.6508444  3
    287    286    292    628     1  0.0000000  1.0460000  1
    287    286    292    628     1  0.0000000  0.0000000  3
    287    286    292    293     1  0.0000000  0.6508444  3
    287    286    292    294     1  0.0000000  0.6508444  3
    288    286    292    628     1  0.0000000  1.0460000  1
    288    286    292    628     1  0.0000000  0.0000000  3
    288    286    292    293     1  0.0000000  0.6508444  3
    288    286    292    294     1  0.0000000  0.6508444  3
    292    628    619    620     1  0.0000000  1.6038667  3
    292    628    619    621     1  0.0000000  1.6038667  3
    293    292    628    619     1  0.0000000  1.6038667  3
    294    292    628    619     1  0.0000000  1.6038667  3
    295    658    649    650     1  0.0000000  1.6038667  3
    295    658    649    651     1  0.0000000  1.6038667  3
    296    295    658    649     1  0.0000000  1.6038667  3
    297    295    658    649     1  0.0000000  1.6038667  3
    300    301    313    314     1  0.0000000  0.6508444  3
    300    301    313    315     1  0.0000000  0.6508444  3
    300    304    316    317     1  0.0000000  0.6508444  3
    300    304    316    318     1  0.0000000  0.6508444  3
    300    307    310    311     1  0.0000000  0.6508444  3
    300    307    310    312     1  0.0000000  0.6508444  3
    301    300    304    305     1  0.0000000  0.6508444  3
    301    300    304    306     1  0.0000000  0.6508444  3
    301    300    307    308     1  0.0000000  0.6508444  3
    301    300    307    309     1  0.0000000  0.6508444  3
    301    313    325    326     1  0.0000000  0.6508444  3
    301    313    325    327     1  0.0000000  0.6508444  3
    302    301    300    304     1  0.0000000  0.6508444  3
    302    301    300    307     1  0.0000000  0.6508444  3
    302    301    300    329     1  0.0000000  0.6508444  3
    302    301    313    325     1  0.0000000  0.6508444  3
    302    301    313    314     1  0.0000000  0.6508444  3
    302    301    313    315     1  0.0000000  0.6508444  3
    303    301    300    304     1  0.0000000  0.6508444  3
    303    301    300    307     1  0.0000000  0.6508444  3
    303    301    300    329     1  0.0000000  0.6508444  3
    303    301    313    325     1  0.0000000  0.6508444  3
    303    301    313    314     1  0.0000000  0.6508444  3
    303    301    313    315     1  0.0000000  0.6508444  3
    304    300    307    308     1  0.0000000  0.6508444  3
    304    300    307    309     1  0.0000000  0.6508444  3
    304    316    322    323     1  0.0000000  0.6508444  3
    304    316    322    324     1  0.0000000  0.6508444  3
    305    304    300    307     1  0.0000000  0.6508444  3
    305    304    300    329     1  0.0000000  0.6508444  3
    305    304    316    322     1  0.0000000  0.6508444  3
    305    304    316    317     1  0.0000000  0.6508444  3
    305    304    316    318     1  0.0000000  0.6508444  3
    306    304    300    307     1  0.0000000  0.6508444  3
    306    304    300    329     1  0.0000000  0.6508444  3
    306    304    316    322     1  0.0000000  0.6508444  3
    306    304    316    317     1  0.0000000  0.6508444  3
    306    304    316    318     1  0.0000000  0.6508444  3
    307    310    319    320     1  0.0000000  0.6508444  3
    307    310    319    321     1  0.0000000  0.6508444  3
    308    307    300    329     1  0.0000000  0.6508444  3
    308    307    310    319     1  0.0000000  0.6508444  3
    308    307    310    311     1  0.0000000  0.6508444  3
    308    307    310    312     1  0.0000000  0.6508444  3
    309    307    300    329     1  0.0000000  0.6508444  3
    309    307    310    319     1  0.0000000  0.6508444  3
    309    307    310    311     1  0.0000000  0.6508444  3
    309    307    310    312     1  0.0000000  0.6508444  3
    310    307    300    329     1  0.0000000  0.6508444  3
    311    310    319    328     1  0.0000000  1.0460000  1
    311    310    319    328     1  0.0000000  0.0000000  3
    311    310    319    320     1  0.0000000  0.6508444  3
    311    310    319    321     1  0.0000000  0.6508444  3
    312    310    319    328     1  0.0000000  1.0460000  1
    312    310    319    328     1  0.0000000  0.0000000  3
    312    310    319    320     1  0.0000000  0.6508444  3
    312    310    319    321     1  0.0000000  0.6508444  3
    313    301    300    329     1  0.0000000  0.6508444  3
    314    313    325    718     1  0.0000000  1.0460000  1
    314    313    325    718     1  0.0000000  0.0000000  3
    314    313    325    326     1  0.0000000  0.6508444  3
    314    313    325    327     1  0.0000000  0.6508444  3
    315    313    325    718     1  0.0000000  1.0460000  1
    315    313    325    718     1  0.0000000  0.0000000  3
    315    313    325    326     1  0.0000000  0.6508444  3
    315    313    325    327     1  0.0000000  0.6508444  3
    316    304    300    329     1  0.0000000  0.6508444  3
    317    316    322    688     1  0.0000000  1.0460000  1
    317    316    322    688     1  0.0000000  0.0000000  3
    317    316    322    323     1  0.0000000  0.6508444  3
    317    316    322    324     1  0.0000000  0.6508444  3
    318    316    322    688     1  0.0000000  1.0460000  1
    318    316    322    688     1  0.0000000  0.0000000  3
    318    316    322    323     1  0.0000000  0.6508444  3
    318    316    322    324     1  0.0000000  0.6508444  3
    322    688    679    680     1  0.0000000  1.6038667  3
    322    688    679    681     1  0.0000000  1.6038667  3
    323    322    688    679     1  0.0000000  1.6038667  3
    324    322    688    679     1  0.0000000  1.6038667  3
    325    718    709    710     1  0.0000000  1.6038667  3
    325    718    709    711     1  0.0000000  1.6038667  3
    326    325    718    709     1  0.0000000  1.6038667  3
    327    325    718    709     1  0.0000000  1.6038667  3
    330    331    343    344     1  0.0000000  0.6508444  3
    330    331    343    345     1  0.0000000  0.6508444  3
    330    334    346    347     1  0.0000000  0.6508444  3
    330    334    346    348     1  0.0000000  0.6508444  3
    330    337    340    341     1  0.0000000  0.6508444  3
    330    337    340    342     1  0.0000000  0.6508444  3
    331    330    334    335     1  0.0000000  0.6508444  3
    331    330    334    336     1  0.0000000  0.6508444  3
    331    330    337    338     1  0.0000000  0.6508444  3
    331    330    337    339     1  0.0000000  0.6508444  3
    331    343    355    356     1  0.0000000  0.6508444  3
    331    343    355    357     1  0.0000000  0.6508444  3
    332    331    330    334     1  0.0000000  0.6508444  3
    332    331    330    337     1  0.0000000  0.6508444  3
    332    331    330    359     1  0.0000000  0.6508444  3
    332    331    343    355     1  0.0000000  0.6508444  3
    332    331    343    344     1  0.0000000  0.6508444  3
    332    331    343    345     1  0.0000000  0.6508444  3
    333    331    330    334     1  0.0000000  0.6508444  3
    333    331    330    337     1  0.0000000  0.6508444  3
    333    331    330    359     1  0.0000000  0.6508444  3
    333    331    343    355     1  0.0000000  0.6508444  3
    333    331    343    344     1  0.0000000  0.6508444  3
    333    331    343    345     1  0.0000000  0.6508444  3
    334    330    337    338     1  0.0000000  0.6508444  3
    334    330    337    339     1  0.0000000  0.6508444  3
    334    346    352    353     1  0.0000000  0.6508444  3
    334    346    352    354     1  0.0000000  0.6508444  3
    335    334    330    337     1  0.0000000  0.6508444  3
    335    334    330    359     1  0.0000000  0.6508444  3
    335    334    346    352     1  0.0000000  0.6508444  3
    335    334    346    347     1  0.0000000  0.6508444  3
    335    334    346    348     1  0.0000000  0.6508444  3
    336    334    330    337     1  0.0000000  0.6508444  3
    336    334    330    359     1  0.0000000  0.6508444  3
    336    334    346    352     1  0.0000000  0.6508444  3
    336    334    346    347     1  0.0000000  0.6508444  3
    336    334    346    348     1  0.0000000  0.6508444  3
    337    340    349    350     1  0.0000000  0.6508444  3
    337    340    349    351     1  0.0000000  0.6508444  3
    338    337    330    359     1  0.0000000  0.6508444  3
    338    337    340    349     1  0.0000000  0.6508444  3
    338    337    340    341     1  0.0000000  0.6508444  3
    338    337    340    342     1  0.0000000  0.6508444  3
    339    337    330    359     1  0.0000000  0.6508444  3
    339    337    340    349     1  0.0000000  0.6508444  3
    339    337    340    341     1  0.0000000  0.6508444  3
    339    337    340    342     1  0.0000000  0.6508444  3
    340    337    330    359     1  0.0000000  0.6508444  3
    341    340    349    358     1  0.0000000  1.0460000  1
    341    340    349    358     1  0.0000000  0.0000000  3
    341    340    349    350     1  0.0000000  0.6508444  3
    341    340    349    351     1  0.0000000  0.6508444  3
    342    340    349    358     1  0.0000000  1.0460000  1
    342    340    349    358     1  0.0000000  0.0000000  3
    342    340    349    350     1  0.0000000  0.6508444  3
    342    340    349    351     1  0.0000000  0.6508444  3
    343    331    330    359     1  0.0000000  0.6508444  3
    344    343    355    778     1  0.0000000  1.0460000  1
    344    343    355    778     1  0.0000000  0.0000000  3
    344    343    355    356     1  0.0000000  0.6508444  3
    344    343    355    357     1  0.0000000  0.6508444  3
    345    343    355    778     1  0.0000000  1.0460000  1
    345    343    355    778     1  0.0000000  0.0000000  3
    345    343    355    356     1  0.0000000  0.6508444  3
    345    343    355    357     1  0.0000000  0.6508444  3
    346    334    330    359     1  0.0000000  0.6508444  3
    347    346    352    748     1  0.0000000  1.0460000  1
    347    346    352    748     1  0.0000000  0.0000000  3
    347    346    352    353     1  0.0000000  0.6508444  3
    347    346    352    354     1  0.0000000  0.6508444  3
    348    346    352    748     1  0.0000000  1.0460000  1
    348    346    352    748     1  0.0000000  0.0000000  3
    348    346    352    353     1  0.0000000  0.6508444  3
    348    346    352    354     1  0.0000000  0.6508444  3
    352    748    739    740     1  0.0000000  1.6038667  3
    352    748    739    741     1  0.0000000  1.6038667  3
    353    352    748    739     1  0.0000000  1.6038667  3
    354    352    748    739     1  0.0000000  1.6038667  3
    355    778    769    770     1  0.0000000  1.6038667  3
    355    778    769    771     1  0.0000000  1.6038667  3
    356    355    778    769     1  0.0000000  1.6038667  3
    357    355    778    769     1  0.0000000  1.6038667  3
    360    361    373    374     1  0.0000000  0.6508444  3
    360    361    373    375     1  0.0000000  0.6508444  3
    360    364    376    377     1  0.0000000  0.6508444  3
    360    364    376    378     1  0.0000000  0.6508444  3
    360    367    370    371     1  0.0000000  0.6508444  3
    360    367    370    372     1  0.0000000  0.6508444  3
    361    360    364    365     1  0.0000000  0.6508444  3
    361    360    364    366     1  0.0000000  0.6508444  3
    361    360    367    368     1  0.0000000  0.6508444  3
    361    360    367    369     1  0.0000000  0.6508444  3
    361    373    385    386     1  0.0000000  0.6508444  3
    361    373    385    387     1  0.0000000  0.6508444  3
    362    361    360    364     1  0.0000000  0.6508444  3
    362    361    360    367     1  0.0000000  0.6508444  3
    362    361    360    389     1  0.0000000  0.6508444  3
    362    361    373    385     1  0.0000000  0.6508444  3
    362    361    373    374     1  0.0000000  0.6508444  3
    362    361    373    375     1  0.0000000  0.6508444  3
    363    361    360    364     1  0.0000000  0.6508444  3
    363    361    360    367     1  0.0000000  0.6508444  3
    363    361    360    389     1  0.0000000  0.6508444  3
    363    361    373    385     1  0.0000000  0.6508444  3
    363    361    373    374     1  0.0000000  0.6508444  3
    363    361    373    375     1  0.0000000  0.6508444  3
    364    360    367    368     1  0.0000000  0.6508444  3
    364    360    367    369     1  0.0000000  0.6508444  3
    364    376    382    383     1  0.0000000  0.6508444  3
    364    376    382    384     1  0.0000000  0.6508444  3
    365    364    360    367     1  0.0000000  0.6508444  3
    365    364    360    389     1  0.0000000  0.6508444  3
    365    364    376    382     1  0.0000000  0.6508444  3
    365    364    376    377     1  0.0000000  0.6508444  3
    365    364    376    378     1  0.0000000  0.6508444  3
    366    364    360    367     1  0.0000000  0.6508444  3
    366    364    360    389     1  0.0000000  0.6508444  3
    366    364    376    382     1  0.0000000  0.6508444  3
    366    364    376    377     1  0.0000000  0.6508444  3
    366    364    376    378     1  0.0000000  0.6508444  3
    367    370    379    380     1  0.0000000  0.6508444  3
    367    370    379    381     1  0.0000000  0.6508444  3
    368    367    360    389     1  0.0000000  0.6508444  3
    368    367    370    379     1  0.0000000  0.6508444  3
    368    367    370    371     1  0.0000000  0.6508444  3
    368    367    370    372     1  0.0000000  0.6508444  3
    369    367    360    389     1  0.0000000  0.6508444  3
    369    367    370    379     1  0.0000000  0.6508444  3
    369    367    370    371     1  0.0000000  0.6508444  3
    369    367    370    372     1  0.0000000  0.6508444  3
    370    367    360    389     1  0.0000000  0.6508444  3
    371    370    379    388     1  0.0000000  1.0460000  1
    371    370    379    388     1  0.0000000  0.0000000  3
    371    370    379    380     1  0.0000000  0.6508444  3
    371    370    379    381     1  0.0000000  0.6508444  3
    372    370    379    388     1  0.0000000  1.0460000  1
    372    370    379    388     1  0.0000000  0.0000000  3
    372    370    379    380     1  0.0000000  0.6508444  3
    372    370    379    381     1  0.0000000  0.6508444  3
    373    361    360    389     1  0.0000000  0.6508444  3
    374    373    385    838     1  0.0000000  1.0460000  1
    374    373    385    838     1  0.0000000  0.0000000  3
    374    373    385    386     1  0.0000000  0.6508444  3
    374    373    385    387     1  0.0000000  0.6508444  3
    375    373    385    838     1  0.0000000  1.0460000  1
    375    373    385    838     1  0.0000000  0.0000000  3
    375    373    385    386     1  0.0000000  0.6508444  3
    375    373    385    387     1  0.0000000  0.6508444  3
    376    364    360    389     1  0.0000000  0.6508444  3
    377    376    382    808     1  0.0000000  1.0460000  1
    377    376    382    808     1  0.0000000  0.0000000  3
    377    376    382    383     1  0.0000000  0.6508444  3
    377    376    382    384     1  0.0000000  0.6508444  3
    378    376    382    808     1  0.0000000  1.0460000  1
    378    376    382    808     1  0.0000000  0.0000000  3
    378    376    382    383     1  0.0000000  0.6508444  3
    378    376    382    384     1  0.0000000  0.6508444  3
    382    808    799    800     1  0.0000000  1.6038667  3
    382    808    799    801     1  0.0000000  1.6038667  3
    383    382    808    799     1  0.0000000  1.6038667  3
    384    382    808    799     1  0.0000000  1.6038667  3
    385    838    829    830     1  0.0000000  1.6038667  3
    385    838    829    831     1  0.0000000  1.6038667  3
    386    385    838    829     1  0.0000000  1.6038667  3
    387    385    838    829     1  0.0000000  1.6038667  3
    390    391    403    404     1  0.0000000  0.6508444  3
    390    391    403    405     1  0.0000000  0.6508444  3
    390    394    406    407     1  0.0000000  0.6508444  3
    390    394    406    408     1  0.0000000  0.6508444  3
    390    397    400    401     1  0.0000000  0.6508444  3
    390    397    400    402     1  0.0000000  0.6508444  3
    391    390    394    395     1  0.0000000  0.6508444  3
    391    390    394    396     1  0.0000000  0.6508444  3
    391    390    397    398     1  0.0000000  0.6508444  3
    391    390    397    399     1  0.0000000  0.6508444  3
    391    403    415    416     1  0.0000000  0.6508444  3
    391    403    415    417     1  0.0000000  0.6508444  3
    392    391    390    394     1  0.0000000  0.6508444  3
    392    391    390    397     1  0.0000000  0.6508444  3
    392    391    390    419     1  0.0000000  0.6508444  3
    392    391    403    415     1  0.0000000  0.6508444  3
    392    391    403    404     1  0.0000000  0.6508444  3
    392    391    403    405     1  0.0000000  0.6508444  3
    393    391    390    394     1  0.0000000  0.6508444  3
    393    391    390    397     1  0.0000000  0.6508444  3
    393    391    390    419     1  0.0000000  0.6508444  3
    393    391    403    415     1  0.0000000  0.6508444  3
    393    391    403    404     1  0.0000000  0.6508444  3
    393    391    403    405     1  0.0000000  0.6508444  3
    394    390    397    398     1  0.0000000  0.6508444  3
    394    390    397    399     1  0.0000000  0.6508444  3
    394    406    412    413     1  0.0000000  0.6508444  3
    394    406    412    414     1  0.0000000  0.6508444  3
    395    394    390    397     1  0.0000000  0.6508444  3
    395    394    390    419     1  0.0000000  0.6508444  3
    395    394    406    412     1  0.0000000  0.6508444  3
    395    394    406    407     1  0.0000000  0.6508444  3
    395    394    406    408     1  0.0000000  0.6508444  3
    396    394    390    397     1  0.0000000  0.6508444  3
    396    394    390    419     1  0.0000000  0.6508444  3
    396    394    406    412     1  0.0000000  0.6508444  3
    396    394    406    407     1  0.0000000  0.6508444  3
    396    394    406    408     1  0.0000000  0.6508444  3
    397    400    409    410     1  0.0000000  0.6508444  3
    397    400    409    411     1  0.0000000  0.6508444  3
    398    397    390    419     1  0.0000000  0.6508444  3
    398    397    400    409     1  0.0000000  0.6508444  3
    398    397    400    401     1  0.0000000  0.6508444  3
    398    397    400    402     1  0.0000000  0.6508444  3
    399    397    390    419     1  0.0000000  0.6508444  3
    399    397    400    409     1  0.0000000  0.6508444  3
    399    397    400    401     1  0.0000000  0.6508444  3
    399    397    400    402     1  0.0000000  0.6508444  3
    400    397    390    419     1  0.0000000  0.6508444  3
    401    400    409    418     1  0.0000000  1.0460000  1
    401    400    409    418     1  0.0000000  0.0000000  3
    401    400    409    410     1  0.0000000  0.6508444  3
    401    400    409    411     1  0.0000000  0.6508444  3
    402    400    409    418     1  0.0000000  1.0460000  1
    402    400    409    418     1  0.0000000  0.0000000  3
    402    400    409    410     1  0.0000000  0.6508444  3
    402    400    409    411     1  0.0000000  0.6508444  3
    403    391    390    419     1  0.0000000  0.6508444  3
    404    403    415    898     1  0.0000000  1.0460000  1
    404    403    415    898     1  0.0000000  0.0000000  3
    404    403    415    416     1  0.0000000  0.6508444  3
    404    403    415    417     1  0.0000000  0.6508444  3
    405    403    415    898     1  0.0000000  1.0460000  1
    405    403    415    898     1  0.0000000  0.0000000  3
    405    403    415    416     1  0.0000000  0.6508444  3
    405    403    415    417     1  0.0000000  0.6508444  3
    406    394    390    419     1  0.0000000  0.6508444  3
    407    406    412    868     1  0.0000000  1.0460000  1
    407    406    412    868     1  0.0000000  0.0000000  3
    407    406    412    413     1  0.0000000  0.6508444  3
    407    406    412    414     1  0.0000000  0.6508444  3
    408    406    412    868     1  0.0000000  1.0460000  1
    408    406    412    868     1  0.0000000  0.0000000  3
    408    406    412    413     1  0.0000000  0.6508444  3
    408    406    412    414     1  0.0000000  0.6508444  3
    412    868    859    860     1  0.0000000  1.6038667  3
    412    868    859    861     1  0.0000000  1.6038667  3
    413    412    868    859     1  0.0000000  1.6038667  3
    414    412    868    859     1  0.0000000  1.6038667  3
    415    898    889    890     1  0.0000000  1.6038667  3
    415    898    889    891     1  0.0000000  1.6038667  3
    416    415    898    889     1  0.0000000  1.6038667  3
    417    415    898    889     1  0.0000000  1.6038667  3
    420    421    433    434     1  0.0000000  0.6508444  3
    420    421    433    435     1  0.0000000  0.6508444  3
    420    424    436    437     1  0.0000000  0.6508444  3
    420    424    436    438     1  0.0000000  0.6508444  3
    420    427    430    431     1  0.0000000  0.6508444  3
    420    427    430    432     1  0.0000000  0.6508444  3
    421    420    424    425     1  0.0000000  0.6508444  3
    421    420    424    426     1  0.0000000  0.6508444  3
    421    420    427    428     1  0.0000000  0.6508444  3
    421    420    427    429     1  0.0000000  0.6508444  3
    421    433    445    446     1  0.0000000  0.6508444  3
    421    433    445    447     1  0.0000000  0.6508444  3
    422    421    420    424     1  0.0000000  0.6508444  3
    422    421    420    427     1  0.0000000  0.6508444  3
    422    421    420    449     1  0.0000000  0.6508444  3
    422    421    433    445     1  0.0000000  0.6508444  3
    422    421    433    434     1  0.0000000  0.6508444  3
    422    421    433    435     1  0.0000000  0.6508444  3
    423    421    420    424     1  0.0000000  0.6508444  3
    423    421    420    427     1  0.0000000  0.6508444  3
    423    421    420    449     1  0.0000000  0.6508444  3
    423    421    433    445     1  0.0000000  0.6508444  3
    423    421    433    434     1  0.0000000  0.6508444  3
    423    421    433    435     1  0.0000000  0.6508444  3
    424    420    427    428     1  0.0000000  0.6508444  3
    424    420    427    429     1  0.0000000  0.6508444  3
    424    436    442    443     1  0.0000000  0.6508444  3
    424    436    442    444     1  0.0000000  0.6508444  3
    425    424    420    427     1  0.0000000  0.6508444  3
    425    424    420    449     1  0.0000000  0.6508444  3
    425    424    436    442     1  0.0000000  0.6508444  3
    425    424    436    437     1  0.0000000  0.6508444  3
    425    424    436    438     1  0.0000000  0.6508444  3
    426    424    420    427     1  0.0000000  0.6508444  3
    426    424    420    449     1  0.0000000  0.6508444  3
    426    424    436    442     1  0.0000000  0.6508444  3
    426    424    436    437     1  0.0000000  0.6508444  3
    426    424    436    438     1  0.0000000  0.6508444  3
    427    430    439    440     1  0.0000000  0.6508444  3
    427    430    439    441     1  0.0000000  0.6508444  3
    428    427    420    449     1  0.0000000  0.6508444  3
    428    427    430    439     1  0.0000000  0.6508444  3
    428    427    430    431     1  0.0000000  0.6508444  3
    428    427    430    432     1  0.0000000  0.6508444  3
    429    427    420    449     1  0.0000000  0.6508444  3
    429    427    430    439     1  0.0000000  0.6508444  3
    429    427    430    431     1  0.0000000  0.6508444  3
    429    427    430    432     1  0.0000000  0.6508444  3
    430    427    420    449     1  0.0000000  0.6508444  3
    431    430    439    448     1  0.0000000  1.0460000  1
    431    430    439    448     1  0.0000000  0.0000000  3
    431    430    439    440     1  0.0000000  0.6508444  3
    431    430    439    441     1  0.0000000  0.6508444  3
    432    430    439    448     1  0.0000000  1.0460000  1
    432    430    439    448     1  0.0000000  0.0000000  3
    432    430    439    440     1  0.0000000  0.6508444  3
    432    430    439    441     1  0.0000000  0.6508444  3
    433    421    420    449     1  0.0000000  0.6508444  3
    434    433    445    958     1  0.0000000  1.0460000  1
    434    433    445    958     1  0.0000000  0.0000000  3
    434    433    445    446     1  0.0000000  0.6508444  3
    434    433    445    447     1  0.0000000  0.6508444  3
    435    433    445    958     1  0.0000000  1.0460000  1
    435    433    445    958     1  0.0000000  0.0000000  3
    435    433    445    446     1  0.0000000  0.6508444  3
    435    433    445    447     1  0.0000000  0.6508444  3
    436    424    420    449     1  0.0000000  0.6508444  3
    437    436    442    928     1  0.0000000  1.0460000  1
    437    436    442    928     1  0.0000000  0.0000000  3
    437    436    442    443     1  0.0000000  0.6508444  3
    437    436    442    444     1  0.0000000  0.6508444  3
    438    436    442    928     1  0.0000000  1.0460000  1
    438    436    442    928     1  0.0000000  0.0000000  3
    438    436    442    443     1  0.0000000  0.6508444  3
    438    436    442    444     1  0.0000000  0.6508444  3
    442    928    919    920     1  0.0000000  1.6038667  3
    442    928    919    921     1  0.0000000  1.6038667  3
    443    442    928    919     1  0.0000000  1.6038667  3
    444    442    928    919     1  0.0000000  1.6038667  3
    445    958    949    950     1  0.0000000  1.6038667  3
    445    958    949    951     1  0.0000000  1.6038667  3
    446    445    958    949     1  0.0000000  1.6038667  3
    447    445    958    949     1  0.0000000  1.6038667  3
    450    451    463    464     1  0.0000000  0.6508444  3
    450    451    463    465     1  0.0000000  0.6508444  3
    450    454    466    467     1  0.0000000  0.6508444  3
    450    454    466    468     1  0.0000000  0.6508444  3
    450    457    460    461     1  0.0000000  0.6508444  3
    450    457    460    462     1  0.0000000  0.6508444  3
    451    450    454    455     1  0.0000000  0.6508444  3
    451    450    454    456     1  0.0000000  0.6508444  3
    451    450    457    458     1  0.0000000  0.6508444  3
    451    450    457    459     1  0.0000000  0.6508444  3
    451    463    475    476     1  0.0000000  0.6508444  3
    451    463    475    477     1  0.0000000  0.6508444  3
    452    451    450    454     1  0.0000000  0.6508444  3
    452    451    450    457     1  0.0000000  0.6508444  3
    452    451    450    479     1  0.0000000  0.6508444  3
    452    451    463    475     1  0.0000000  0.6508444  3
    452    451    463    464     1  0.0000000  0.6508444  3
    452    451    463    465     1  0.0000000  0.6508444  3
    453    451    450    454     1  0.0000000  0.6508444  3
    453    451    450    457     1  0.0000000  0.6508444  3
    453    451    450    479     1  0.0000000  0.6508444  3
    453    451    463    475     1  0.0000000  0.6508444  3
    453    451    463    464     1  0.0000000  0.6508444  3
    453    451    463    465     1  0.0000000  0.6508444  3
    454    450    457    458     1  0.0000000  0.6508444  3
    454    450    457    459     1  0.0000000  0.6508444  3
    454    466    472    473     1  0.0000000  0.6508444  3
    454    466    472    474     1  0.0000000  0.6508444  3
    455    454    450    457     1  0.0000000  0.6508444  3
    455    454    450    479     1  0.0000000  0.6508444  3
    455    454    466    472     1  0.0000000  0.6508444  3
    455    454    466    467     1  0.0000000  0.6508444  3
    455    454    466    468     1  0.0000000  0.6508444  3
    456    454    450    457     1  0.0000000  0.6508444  3
    456    454    450    479     1  0.0000000  0.6508444  3
    456    454    466    472     1  0.0000000  0.6508444  3
    456    454    466    467     1  0.0000000  0.6508444  3
    456    454    466    468     1  0.0000000  0.6508444  3
    457    460    469    470     1  0.0000000  0.6508444  3
    457    460    469    471     1  0.0000000  0.6508444  3
    458    457    450    479     1  0.0000000  0.6508444  3
    458    457    460    469     1  0.0000000  0.6508444  3
    458    457    460    461     1  0.0000000  0.6508444  3
    458    457    460    462     1  0.0000000  0.6508444  3
    459    457    450    479     1  0.0000000  0.6508444  3
    459    457    460    469     1  0.0000000  0.6508444  3
    459    457    460    461     1  0.0000000  0.6508444  3
    459    457    460    462     1  0.0000000  0.6508444  3
    460    457    450    479     1  0.0000000  0.6508444  3
    461    460    469    478     1  0.0000000  1.0460000  1
    461    460    469    478     1  0.0000000  0.0000000  3
    461    460    469    470     1  0.0000000  0.6508444  3
    461    460    469    471     1  0.0000000  0.6508444  3
    462    460    469    478     1  0.0000000  1.0460000  1
    462    460    469    478     1  0.0000000  0.0000000  3
    462    460    469    470     1  0.0000000  0.6508444  3
    462    460    469    471     1  0.0000000  0.6508444  3
    463    451    450    479     1  0.0000000  0.6508444  3
    464    463    475   1018     1  0.0000000  1.0460000  1
    464    463    475   1018     1  0.0000000  0.0000000  3
    464    463    475    476     1  0.0000000  0.6508444  3
    464    463    475    477     1  0.0000000  0.6508444  3
    465    463    475   1018     1  0.0000000  1.0460000  1
    465    463    475   1018     1  0.0000000  0.0000000  3
    465    463    475    476     1  0.0000000  0.6508444  3
    465    463    475    477     1  0.0000000  0.6508444  3
    466    454    450    479     1  0.0000000  0.6508444  3
    467    466    472    988     1  0.0000000  1.0460000  1
    467    466    472    988     1  0.0000000  0.0000000  3
    467    466    472    473     1  0.0000000  0.6508444  3
    467    466    472    474     1  0.0000000  0.6508444  3
    468    466    472    988     1  0.0000000  1.0460000  1
    468    466    472    988     1  0.0000000  0.0000000  3
    468    466    472    473     1  0.0000000  0.6508444  3
    468    466    472    474     1  0.0000000  0.6508444  3
    472    988    979    980     1  0.0000000  1.6038667  3
    472    988    979    981     1  0.0000000  1.6038667  3
    473    472    988    979     1  0.0000000  1.6038667  3
    474    472    988    979     1  0.0000000  1.6038667  3
    475   1018   1009   1010     1  0.0000000  1.6038667  3
    475   1018   1009   1011     1  0.0000000  1.6038667  3
    476    475   1018   1009     1  0.0000000  1.6038667  3
    477    475   1018   1009     1  0.0000000  1.6038667  3
    480    481    493    494     1  0.0000000  0.6508444  3
    480    481    493    495     1  0.0000000  0.6508444  3
    480    484    496    497     1  0.0000000  0.6508444  3
    480    484    496    498     1  0.0000000  0.6508444  3
    480    487    490    491     1  0.0000000  0.6508444  3
    480    487    490    492     1  0.0000000  0.6508444  3
    481    480    484    485     1  0.0000000  0.6508444  3
    481    480    484    486     1  0.0000000  0.6508444  3
    481    480    487    488     1  0.0000000  0.6508444  3
    481    480    487    489     1  0.0000000  0.6508444  3
    481    493    505    506     1  0.0000000  0.6508444  3
    481    493    505    507     1  0.0000000  0.6508444  3
    482    481    480    484     1  0.0000000  0.6508444  3
    482    481    480    487     1  0.0000000  0.6508444  3
    482    481    480    509     1  0.0000000  0.6508444  3
    482    481    493    505     1  0.0000000  0.6508444  3
    482    481    493    494     1  0.0000000  0.6508444  3
    482    481    493    495     1  0.0000000  0.6508444  3
    483    481    480    484     1  0.0000000  0.6508444  3
    483    481    480    487     1  0.0000000  0.6508444  3
    483    481    480    509     1  0.0000000  0.6508444  3
    483    481    493    505     1  0.0000000  0.6508444  3
    483    481    493    494     1  0.0000000  0.6508444  3
    483    481    493    495     1  0.0000000  0.6508444  3
    484    480    487    488     1  0.0000000  0.6508444  3
    484    480    487    489     1  0.0000000  0.6508444  3
    484    496    502    503     1  0.0000000  0.6508444  3
    484    496    502    504     1  0.0000000  0.6508444  3
    485    484    480    487     1  0.0000000  0.6508444  3
    485    484    480    509     1  0.0000000  0.6508444  3
    485    484    496    502     1  0.0000000  0.6508444  3
    485    484    496    497     1  0.0000000  0.6508444  3
    485    484    496    498     1  0.0000000  0.6508444  3
    486    484    480    487     1  0.0000000  0.6508444  3
    486    484    480    509     1  0.0000000  0.6508444  3
    486    484    496    502     1  0.0000000  0.6508444  3
    486    484    496    497     1  0.0000000  0.6508444  3
    486    484    496    498     1  0.0000000  0.6508444  3
    487    490    499    500     1  0.0000000  0.6508444  3
    487    490    499    501     1  0.0000000  0.6508444  3
    488    487    480    509     1  0.0000000  0.6508444  3
    488    487    490    499     1  0.0000000  0.6508444  3
    488    487    490    491     1  0.0000000  0.6508444  3
    488    487    490    492     1  0.0000000  0.6508444  3
    489    487    480    509     1  0.0000000  0.6508444  3
    489    487    490    499     1  0.0000000  0.6508444  3
    489    487    490    491     1  0.0000000  0.6508444  3
    489    487    490    492     1  0.0000000  0.6508444  3
    490    487    480    509     1  0.0000000  0.6508444  3
    491    490    499    508     1  0.0000000  1.0460000  1
    491    490    499    508     1  0.0000000  0.0000000  3
    491    490    499    500     1  0.0000000  0.6508444  3
    491    490    499    501     1  0.0000000  0.6508444  3
    492    490    499    508     1  0.0000000  1.0460000  1
    492    490    499    508     1  0.0000000  0.0000000  3
    492    490    499    500     1  0.0000000  0.6508444  3
    492    490    499    501     1  0.0000000  0.6508444  3
    493    481    480    509     1  0.0000000  0.6508444  3
    494    493    505   1078     1  0.0000000  1.0460000  1
    494    493    505   1078     1  0.0000000  0.0000000  3
    494    493    505    506     1  0.0000000  0.6508444  3
    494    493    505    507     1  0.0000000  0.6508444  3
    495    493    505   1078     1  0.0000000  1.0460000  1
    495    493    505   1078     1  0.0000000  0.0000000  3
    495    493    505    506     1  0.0000000  0.6508444  3
    495    493    505    507     1  0.0000000  0.6508444  3
    496    484    480    509     1  0.0000000  0.6508444  3
    497    496    502   1048     1  0.0000000  1.0460000  1
    497    496    502   1048     1  0.0000000  0.0000000  3
    497    496    502    503     1  0.0000000  0.6508444  3
    497    496    502    504     1  0.0000000  0.6508444  3
    498    496    502   1048     1  0.0000000  1.0460000  1
    498    496    502   1048     1  0.0000000  0.0000000  3
    498    496    502    503     1  0.0000000  0.6508444  3
    498    496    502    504     1  0.0000000  0.6508444  3
    502   1048   1039   1040     1  0.0000000  1.6038667  3
    502   1048   1039   1041     1  0.0000000  1.6038667  3
    503    502   1048   1039     1  0.0000000  1.6038667  3
    504    502   1048   1039     1  0.0000000  1.6038667  3
    505   1078   1069   1070     1  0.0000000  1.6038667  3
    505   1078   1069   1071     1  0.0000000  1.6038667  3
    506    505   1078   1069     1  0.0000000  1.6038667  3
    507    505   1078   1069     1  0.0000000  1.6038667  3
    510    511    523    524     1  0.0000000  0.6508444  3
    510    511    523    525     1  0.0000000  0.6508444  3
    510    514    526    527     1  0.0000000  0.6508444  3
    510    514    526    528     1  0.0000000  0.6508444  3
    510    517    520    521     1  0.0000000  0.6508444  3
    510    517    520    522     1  0.0000000  0.6508444  3
    511    510    514    515     1  0.0000000  0.6508444  3
    511    510    514    516     1  0.0000000  0.6508444  3
    511    510    517    518     1  0.0000000  0.6508444  3
    511    510    517    519     1  0.0000000  0.6508444  3
    511    523    535    536     1  0.0000000  0.6508444  3
    511    523    535    537     1  0.0000000  0.6508444  3
    512    511    510    514     1  0.0000000  0.6508444  3
    512    511    510    517     1  0.0000000  0.6508444  3
    512    511    510    539     1  0.0000000  0.6508444  3
    512    511    523    535     1  0.0000000  0.6508444  3
    512    511    523    524     1  0.0000000  0.6508444  3
    512    511    523    525     1  0.0000000  0.6508444  3
    513    511    510    514     1  0.0000000  0.6508444  3
    513    511    510    517     1  0.0000000  0.6508444  3
    513    511    510    539     1  0.0000000  0.6508444  3
    513    511    523    535     1  0.0000000  0.6508444  3
    513    511    523    524     1  0.0000000  0.6508444  3
    513    511    523    525     1  0.0000000  0.6508444  3
    514    510    517    518     1  0.0000000  0.6508444  3
    514    510    517    519     1  0.0000000  0.6508444  3
    514    526    532    533     1  0.0000000  0.6508444  3
    514    526    532    534     1  0.0000000  0.6508444  3
    515    514    510    517     1  0.0000000  0.6508444  3
    515    514    510    539     1  0.0000000  0.6508444  3
    515    514    526    532     1  0.0000000  0.6508444  3
    515    514    526    527     1  0.0000000  0.6508444  3
    515    514    526    528     1  0.0000000  0.6508444  3
    516    514    510    517     1  0.0000000  0.6508444  3
    516    514    510    539     1  0.0000000  0.6508444  3
    516    514    526    532     1  0.0000000  0.6508444  3
    516    514    526    527     1  0.0000000  0.6508444  3
    516    514    526    528     1  0.0000000  0.6508444  3
    517    520    529    530     1  0.0000000  0.6508444  3
    517    520    529    531     1  0.0000000  0.6508444  3
    518    517    510    539     1  0.0000000  0.6508444  3
    518    517    520    529     1  0.0000000  0.6508444  3
    518    517    520    521     1  0.0000000  0.6508444  3
    518    517    520    522     1  0.0000000  0.6508444  3
    519    517    510    539     1  0.0000000  0.6508444  3
    519    517    520    529     1  0.0000000  0.6508444  3
    519    517    520    521     1  0.0000000  0.6508444  3
    519    517    520    522     1  0.0000000  0.6508444  3
    520    517    510    539     1  0.0000000  0.6508444  3
    521    520    529    538     1  0.0000000  1.0460000  1
    521    520    529    538     1  0.0000000  0.0000000  3
    521    520    529    530     1  0.0000000  0.6508444  3
    521    520    529    531     1  0.0000000  0.6508444  3
    522    520    529    538     1  0.0000000  1.0460000  1
    522    520    529    538     1  0.0000000  0.0000000  3
    522    520    529    530     1  0.0000000  0.6508444  3
    522    520    529    531     1  0.0000000  0.6508444  3
    523    511    510    539     1  0.0000000  0.6508444  3
    524    523    535   1138     1  0.0000000  1.0460000  1
    524    523    535   1138     1  0.0000000  0.0000000  3
    524    523    535    536     1  0.0000000  0.6508444  3
    524    523    535    537     1  0.0000000  0.6508444  3
    525    523    535   1138     1  0.0000000  1.0460000  1
    525    523    535   1138     1  0.0000000  0.0000000  3
    525    523    535    536     1  0.0000000  0.6508444  3
    525    523    535    537     1  0.0000000  0.6508444  3
    526    514    510    539     1  0.0000000  0.6508444  3
    527    526    532   1108     1  0.0000000  1.0460000  1
    527    526    532   1108     1  0.0000000  0.0000000  3
    527    526    532    533     1  0.0000000  0.6508444  3
    527    526    532    534     1  0.0000000  0.6508444  3
    528    526    532   1108     1  0.0000000  1.0460000  1
    528    526    532   1108     1  0.0000000  0.0000000  3
    528    526    532    533     1  0.0000000  0.6508444  3
    528    526    532    534     1  0.0000000  0.6508444  3
    532   1108   1099   1100     1  0.0000000  1.6038667  3
    532   1108   1099   1101     1  0.0000000  1.6038667  3
    533    532   1108   1099     1  0.0000000  1.6038667  3
    534    532   1108   1099     1  0.0000000  1.6038667  3
    535   1138   1129   1130     1  0.0000000  1.6038667  3
    535   1138   1129   1131     1  0.0000000  1.6038667  3
    536    535   1138   1129     1  0.0000000  1.6038667  3
    537    535   1138   1129     1  0.0000000  1.6038667  3
    540    541    553    554     1  0.0000000  0.6508444  3
    540    541    553    555     1  0.0000000  0.6508444  3
    540    544    556    557     1  0.0000000  0.6508444  3
    540    544    556    558     1  0.0000000  0.6508444  3
    540    547    550    551     1  0.0000000  0.6508444  3
    540    547    550    552     1  0.0000000  0.6508444  3
    541    540    544    545     1  0.0000000  0.6508444  3
    541    540    544    546     1  0.0000000  0.6508444  3
    541    540    547    548     1  0.0000000  0.6508444  3
    541    540    547    549     1  0.0000000  0.6508444  3
    541    553    565    566     1  0.0000000  0.6508444  3
    541    553    565    567     1  0.0000000  0.6508444  3
    542    541    540    544     1  0.0000000  0.6508444  3
    542    541    540    547     1  0.0000000  0.6508444  3
    542    541    540    569     1  0.0000000  0.6508444  3
    542    541    553    565     1  0.0000000  0.6508444  3
    542    541    553    554     1  0.0000000  0.6508444  3
    542    541    553    555     1  0.0000000  0.6508444  3
    543    541    540    544     1  0.0000000  0.6508444  3
    543    541    540    547     1  0.0000000  0.6508444  3
    543    541    540    569     1  0.0000000  0.6508444  3
    543    541    553    565     1  0.0000000  0.6508444  3
    543    541    553    554     1  0.0000000  0.6508444  3
    543    541    553    555     1  0.0000000  0.6508444  3
    544    540    547    548     1  0.0000000  0.6508444  3
    544    540    547    549     1  0.0000000  0.6508444  3
    544    556    562    563     1  0.0000000  0.6508444  3
    544    556    562    564     1  0.0000000  0.6508444  3
    545    544    540    547     1  0.0000000  0.6508444  3
    545    544    540    569     1  0.0000000  0.6508444  3
    545    544    556    562     1  0.0000000  0.6508444  3
    545    544    556    557     1  0.0000000  0.6508444  3
    545    544    556    558     1  0.0000000  0.6508444  3
    546    544    540    547     1  0.0000000  0.6508444  3
    546    544    540    569     1  0.0000000  0.6508444  3
    546    544    556    562     1  0.0000000  0.6508444  3
    546    544    556    557     1  0.0000000  0.6508444  3
    546    544    556    558     1  0.0000000  0.6508444  3
    547    550    559    560     1  0.0000000  0.6508444  3
    547    550    559    561     1  0.0000000  0.6508444  3
    548    547    540    569     1  0.0000000  0.6508444  3
    548    547    550    559     1  0.0000000  0.6508444  3
    548    547    550    551     1  0.0000000  0.6508444  3
    548    547    550    552     1  0.0000000  0.6508444  3
    549    547    540    569     1  0.0000000  0.6508444  3
    549    547    550    559     1  0.0000000  0.6508444  3
    549    547    550    551     1  0.0000000  0.6508444  3
    549    547    550    552     1  0.0000000  0.6508444  3
    550    547    540    569     1  0.0000000  0.6508444  3
    551    550    559    568     1  0.0000000  1.0460000  1
    551    550    559    568     1  0.0000000  0.0000000  3
    551    550    559    560     1  0.0000000  0.6508444  3
    551    550    559    561     1  0.0000000  0.6508444  3
    552    550    559    568     1  0.0000000  1.0460000  1
    552    550    559    568     1  0.0000000  0.0000000  3
    552    550    559    560     1  0.0000000  0.6508444  3
    552    550    559    561     1  0.0000000  0.6508444  3
    553    541    540    569     1  0.0000000  0.6508444  3
    554    553    565   1198     1  0.0000000  1.0460000  1
    554    553    565   1198     1  0.0000000  0.0000000  3
    554    553    565    566     1  0.0000000  0.6508444  3
    554    553    565    567     1  0.0000000  0.6508444  3
    555    553    565   1198     1  0.0000000  1.0460000  1
    555    553    565   1198     1  0.0000000  0.0000000  3
    555    553    565    566     1  0.0000000  0.6508444  3
    555    553    565    567     1  0.0000000  0.6508444  3
    556    544    540    569     1  0.0000000  0.6508444  3
    557    556    562   1168     1  0.0000000  1.0460000  1
    557    556    562   1168     1  0.0000000  0.0000000  3
    557    556    562    563     1  0.0000000  0.6508444  3
    557    556    562    564     1  0.0000000  0.6508444  3
    558    556    562   1168     1  0.0000000  1.0460000  1
    558    556    562   1168     1  0.0000000  0.0000000  3
    558    556    562    563     1  0.0000000  0.6508444  3
    558    556    562    564     1  0.0000000  0.6508444  3
    562   1168   1159   1160     1  0.0000000  1.6038667  3
    562   1168   1159   1161     1  0.0000000  1.6038667  3
    563    562   1168   1159     1  0.0000000  1.6038667  3
    564    562   1168   1159     1  0.0000000  1.6038667  3
    565   1198   1189   1190     1  0.0000000  1.6038667  3
    565   1198   1189   1191     1  0.0000000  1.6038667  3
    566    565   1198   1189     1  0.0000000  1.6038667  3
    567    565   1198   1189     1  0.0000000  1.6038667  3
    570    571    583    584     1  0.0000000  0.6508444  3
    570    571    583    585     1  0.0000000  0.6508444  3
    570    574    586    587     1  0.0000000  0.6508444  3
    570    574    586    588     1  0.0000000  0.6508444  3
    570    577    580    581     1  0.0000000  0.6508444  3
    570    577    580    582     1  0.0000000  0.6508444  3
    571    570    574    575     1  0.0000000  0.6508444  3
    571    570    574    576     1  0.0000000  0.6508444  3
    571    570    577    578     1  0.0000000  0.6508444  3
    571    570    577    579     1  0.0000000  0.6508444  3
    571    583    595    596     1  0.0000000  0.6508444  3
    571    583    595    597     1  0.0000000  0.6508444  3
    572    571    570    574     1  0.0000000  0.6508444  3
    572    571    570    577     1  0.0000000  0.6508444  3
    572    571    570    599     1  0.0000000  0.6508444  3
    572    571    583    595     1  0.0000000  0.6508444  3
    572    571    583    584     1  0.0000000  0.6508444  3
    572    571    583    585     1  0.0000000  0.6508444  3
    573    571    570    574     1  0.0000000  0.6508444  3
    573    571    570    577     1  0.0000000  0.6508444  3
    573    571    570    599     1  0.0000000  0.6508444  3
    573    571    583    595     1  0.0000000  0.6508444  3
    573    571    583    584     1  0.0000000  0.6508444  3
    573    571    583    585     1  0.0000000  0.6508444  3
    574    570    577    578     1  0.0000000  0.6508444  3
    574    570    577    579     1  0.0000000  0.6508444  3
    574    586    592    593     1  0.0000000  0.6508444  3
    574    586    592    594     1  0.0000000  0.6508444  3
    575    574    570    577     1  0.0000000  0.6508444  3
    575    574    570    599     1  0.0000000  0.6508444  3
    575    574    586    592     1  0.0000000  0.6508444  3
    575    574    586    587     1  0.0000000  0.6508444  3
    575    574    586    588     1  0.0000000  0.6508444  3
    576    574    570    577     1  0.0000000  0.6508444  3
    576    574    570    599     1  0.0000000  0.6508444  3
    576    574    586    592     1  0.0000000  0.6508444  3
    576    574    586    587     1  0.0000000  0.6508444  3
    576    574    586    588     1  0.0000000  0.6508444  3
    577    580    589    590     1  0.0000000  0.6508444  3
    577    580    589    591     1  0.0000000  0.6508444  3
    578    577    570    599     1  0.0000000  0.6508444  3
    578    577    580    589     1  0.0000000  0.6508444  3
    578    577    580    581     1  0.0000000  0.6508444  3
    578    577    580    582     1  0.0000000  0.6508444  3
    579    577    570    599     1  0.0000000  0.6508444  3
    579    577    580    589     1  0.0000000  0.6508444  3
    579    577    580    581     1  0.0000000  0.6508444  3
    579    577    580    582     1  0.0000000  0.6508444  3
    580    577    570    599     1  0.0000000  0.6508444  3
    581    580    589    598     1  0.0000000  1.0460000  1
    581    580    589    598     1  0.0000000  0.0000000  3
    581    580    589    590     1  0.0000000  0.6508444  3
    581    580    589    591     1  0.0000000  0.6508444  3
    582    580    589    598     1  0.0000000  1.0460000  1
    582    580    589    598     1  0.0000000  0.0000000  3
    582    580    589    590     1  0.0000000  0.6508444  3
    582    580    589    591     1  0.0000000  0.6508444  3
    583    571    570    599     1  0.0000000  0.6508444  3
    584    583    595   1258     1  0.0000000  1.0460000  1
    584    583    595   1258     1  0.0000000  0.0000000  3
    584    583    595    596     1  0.0000000  0.6508444  3
    584    583    595    597     1  0.0000000  0.6508444  3
    585    583    595   1258     1  0.0000000  1.0460000  1
    585    583    595   1258     1  0.0000000  0.0000000  3
    585    583    595    596     1  0.0000000  0.6508444  3
    585    583    595    597     1  0.0000000  0.6508444  3
    586    574    570    599     1  0.0000000  0.6508444  3
    587    586    592   1228     1  0.0000000  1.0460000  1
    587    586    592   1228     1  0.0000000  0.0000000  3
    587    586    592    593     1  0.0000000  0.6508444  3
    587    586    592    594     1  0.0000000  0.6508444  3
    588    586    592   1228     1  0.0000000  1.0460000  1
    588    586    592   1228     1  0.0000000  0.0000000  3
    588    586    592    593     1  0.0000000  0.6508444  3
    588    586    592    594     1  0.0000000  0.6508444  3
    592   1228   1219   1220     1  0.0000000  1.6038667  3
    592   1228   1219   1221     1  0.0000000  1.6038667  3
    593    592   1228   1219     1  0.0000000  1.6038667  3
    594    592   1228   1219     1  0.0000000  1.6038667  3
    595   1258   1249   1250     1  0.0000000  1.6038667  3
    595   1258   1249   1251     1  0.0000000  1.6038667  3
    596    595   1258   1249     1  0.0000000  1.6038667  3
    597    595   1258   1249     1  0.0000000  1.6038667  3
    600    601    613    614     1  0.0000000  0.6508444  3
    600    601    613    615     1  0.0000000  0.6508444  3
    600    604    616    617     1  0.0000000  0.6508444  3
    600    604    616    618     1  0.0000000  0.6508444  3
    600    607    610    611     1  0.0000000  0.6508444  3
    600    607    610    612     1  0.0000000  0.6508444  3
    601    600    604    605     1  0.0000000  0.6508444  3
    601    600    604    606     1  0.0000000  0.6508444  3
    601    600    607    608     1  0.0000000  0.6508444  3
    601    600    607    609     1  0.0000000  0.6508444  3
    601    613    625    626     1  0.0000000  0.6508444  3
    601    613    625    627     1  0.0000000  0.6508444  3
    602    601    600    604     1  0.0000000  0.6508444  3
    602    601    600    607     1  0.0000000  0.6508444  3
    602    601    600    629     1  0.0000000  0.6508444  3
    602    601    613    625     1  0.0000000  0.6508444  3
    602    601    613    614     1  0.0000000  0.6508444  3
    602    601    613    615     1  0.0000000  0.6508444  3
    603    601    600    604     1  0.0000000  0.6508444  3
    603    601    600    607     1  0.0000000  0.6508444  3
    603    601    600    629     1  0.0000000  0.6508444  3
    603    601    613    625     1  0.0000000  0.6508444  3
    603    601    613    614     1  0.0000000  0.6508444  3
    603    601    613    615     1  0.0000000  0.6508444  3
    604    600    607    608     1  0.0000000  0.6508444  3
    604    600    607    609     1  0.0000000  0.6508444  3
    604    616    622    623     1  0.0000000  0.6508444  3
    604    616    622    624     1  0.0000000  0.6508444  3
    605    604    600    607     1  0.0000000  0.6508444  3
    605    604    600    629     1  0.0000000  0.6508444  3
    605    604    616    622     1  0.0000000  0.6508444  3
    605    604    616    617     1  0.0000000  0.6508444  3
    605    604    616    618     1  0.0000000  0.6508444  3
    606    604    600    607     1  0.0000000  0.6508444  3
    606    604    600    629     1  0.0000000  0.6508444  3
    606    604    616    622     1  0.0000000  0.6508444  3
    606    604    616    617     1  0.0000000  0.6508444  3
    606    604    616    618     1  0.0000000  0.6508444  3
    607    610    619    620     1  0.0000000  0.6508444  3
    607    610    619    621     1  0.0000000  0.6508444  3
    608    607    600    629     1  0.0000000  0.6508444  3
    608    607    610    619     1  0.0000000  0.6508444  3
    608    607    610    611     1  0.0000000  0.6508444  3
    608    607    610    612     1  0.0000000  0.6508444  3
    609    607    600    629     1  0.0000000  0.6508444  3
    609    607    610    619     1  0.0000000  0.6508444  3
    609    607    610    611     1  0.0000000  0.6508444  3
    609    607    610    612     1  0.0000000  0.6508444  3
    610    607    600    629     1  0.0000000  0.6508444  3
    611    610    619    628     1  0.0000000  1.0460000  1
    611    610    619    628     1  0.0000000  0.0000000  3
    611    610    619    620     1  0.0000000  0.6508444  3
    611    610    619    621     1  0.0000000  0.6508444  3
    612    610    619    628     1  0.0000000  1.0460000  1
    612    610    619    628     1  0.0000000  0.0000000  3
    612    610    619    620     1  0.0000000  0.6508444  3
    612    610    619    621     1  0.0000000  0.6508444  3
    613    601    600    629     1  0.0000000  0.6508444  3
    614    613    625   1318     1  0.0000000  1.0460000  1
    614    613    625   1318     1  0.0000000  0.0000000  3
    614    613    625    626     1  0.0000000  0.6508444  3
    614    613    625    627     1  0.0000000  0.6508444  3
    615    613    625   1318     1  0.0000000  1.0460000  1
    615    613    625   1318     1  0.0000000  0.0000000  3
    615    613    625    626     1  0.0000000  0.6508444  3
    615    613    625    627     1  0.0000000  0.6508444  3
    616    604    600    629     1  0.0000000  0.6508444  3
    617    616    622   1288     1  0.0000000  1.0460000  1
    617    616    622   1288     1  0.0000000  0.0000000  3
    617    616    622    623     1  0.0000000  0.6508444  3
    617    616    622    624     1  0.0000000  0.6508444  3
    618    616    622   1288     1  0.0000000  1.0460000  1
    618    616    622   1288     1  0.0000000  0.0000000  3
    618    616    622    623     1  0.0000000  0.6508444  3
    618    616    622    624     1  0.0000000  0.6508444  3
    622   1288   1279   1280     1  0.0000000  1.6038667  3
    622   1288   1279   1281     1  0.0000000  1.6038667  3
    623    622   1288   1279     1  0.0000000  1.6038667  3
    624    622   1288   1279     1  0.0000000  1.6038667  3
    625   1318   1309   1310     1  0.0000000  1.6038667  3
    625   1318   1309   1311     1  0.0000000  1.6038667  3
    626    625   1318   1309     1  0.0000000  1.6038667  3
    627    625   1318   1309     1  0.0000000  1.6038667  3
    630    631    643    644     1  0.0000000  0.6508444  3
    630    631    643    645     1  0.0000000  0.6508444  3
    630    634    646    647     1  0.0000000  0.6508444  3
    630    634    646    648     1  0.0000000  0.6508444  3
    630    637    640    641     1  0.0000000  0.6508444  3
    630    637    640    642     1  0.0000000  0.6508444  3
    631    630    634    635     1  0.0000000  0.6508444  3
    631    630    634    636     1  0.0000000  0.6508444  3
    631    630    637    638     1  0.0000000  0.6508444  3
    631    630    637    639     1  0.0000000  0.6508444  3
    631    643    655    656     1  0.0000000  0.6508444  3
    631    643    655    657     1  0.0000000  0.6508444  3
    632    631    630    634     1  0.0000000  0.6508444  3
    632    631    630    637     1  0.0000000  0.6508444  3
    632    631    630    659     1  0.0000000  0.6508444  3
    632    631    643    655     1  0.0000000  0.6508444  3
    632    631    643    644     1  0.0000000  0.6508444  3
    632    631    643    645     1  0.0000000  0.6508444  3
    633    631    630    634     1  0.0000000  0.6508444  3
    633    631    630    637     1  0.0000000  0.6508444  3
    633    631    630    659     1  0.0000000  0.6508444  3
    633    631    643    655     1  0.0000000  0.6508444  3
    633    631    643    644     1  0.0000000  0.6508444  3
    633    631    643    645     1  0.0000000  0.6508444  3
    634    630    637    638     1  0.0000000  0.6508444  3
    634    630    637    639     1  0.0000000  0.6508444  3
    634    646    652    653     1  0.0000000  0.6508444  3
    634    646    652    654     1  0.0000000  0.6508444  3
    635    634    630    637     1  0.0000000  0.6508444  3
    635    634    630    659     1  0.0000000  0.6508444  3
    635    634    646    652     1  0.0000000  0.6508444  3
    635    634    646    647     1  0.0000000  0.6508444  3
    635    634    646    648     1  0.0000000  0.6508444  3
    636    634    630    637     1  0.0000000  0.6508444  3
    636    634    630    659     1  0.0000000  0.6508444  3
    636    634    646    652     1  0.0000000  0.6508444  3
    636    634    646    647     1  0.0000000  0.6508444  3
    636    634    646    648     1  0.0000000  0.6508444  3
    637    640    649    650     1  0.0000000  0.6508444  3
    637    640    649    651     1  0.0000000  0.6508444  3
    638    637    630    659     1  0.0000000  0.6508444  3
    638    637    640    649     1  0.0000000  0.6508444  3
    638    637    640    641     1  0.0000000  0.6508444  3
    638    637    640    642     1  0.0000000  0.6508444  3
    639    637    630    659     1  0.0000000  0.6508444  3
    639    637    640    649     1  0.0000000  0.6508444  3
    639    637    640    641     1  0.0000000  0.6508444  3
    639    637    640    642     1  0.0000000  0.6508444  3
    640    637    630    659     1  0.0000000  0.6508444  3
    641    640    649    658     1  0.0000000  1.0460000  1
    641    640    649    658     1  0.0000000  0.0000000  3
    641    640    649    650     1  0.0000000  0.6508444  3
    641    640    649    651     1  0.0000000  0.6508444  3
    642    640    649    658     1  0.0000000  1.0460000  1
    642    640    649    658     1  0.0000000  0.0000000  3
    642    640    649    650     1  0.0000000  0.6508444  3
    642    640    649    651     1  0.0000000  0.6508444  3
    643    631    630    659     1  0.0000000  0.6508444  3
    644    643    655   1378     1  0.0000000  1.0460000  1
    644    643    655   1378     1  0.0000000  0.0000000  3
    644    643    655    656     1  0.0000000  0.6508444  3
    644    643    655    657     1  0.0000000  0.6508444  3
    645    643    655   1378     1  0.0000000  1.0460000  1
    645    643    655   1378     1  0.0000000  0.0000000  3
    645    643    655    656     1  0.0000000  0.6508444  3
    645    643    655    657     1  0.0000000  0.6508444  3
    646    634    630    659     1  0.0000000  0.6508444  3
    647    646    652   1348     1  0.0000000  1.0460000  1
    647    646    652   1348     1  0.0000000  0.0000000  3
    647    646    652    653     1  0.0000000  0.6508444  3
    647    646    652    654     1  0.0000000  0.6508444  3
    648    646    652   1348     1  0.0000000  1.0460000  1
    648    646    652   1348     1  0.0000000  0.0000000  3
    648    646    652    653     1  0.0000000  0.6508444  3
    648    646    652    654     1  0.0000000  0.6508444  3
    652   1348   1339   1340     1  0.0000000  1.6038667  3
    652   1348   1339   1341     1  0.0000000  1.6038667  3
    653    652   1348   1339     1  0.0000000  1.6038667  3
    654    652   1348   1339     1  0.0000000  1.6038667  3
    655   1378   1369   1370     1  0.0000000  1.6038667  3
    655   1378   1369   1371     1  0.0000000  1.6038667  3
    656    655   1378   1369     1  0.0000000  1.6038667  3
    657    655   1378   1369     1  0.0000000  1.6038667  3
    660    661    673    674     1  0.0000000  0.6508444  3
    660    661    673    675     1  0.0000000  0.6508444  3
    660    664    676    677     1  0.0000000  0.6508444  3
    660    664    676    678     1  0.0000000  0.6508444  3
    660    667    670    671     1  0.0000000  0.6508444  3
    660    667    670    672     1  0.0000000  0.6508444  3
    661    660    664    665     1  0.0000000  0.6508444  3
    661    660    664    666     1  0.0000000  0.6508444  3
    661    660    667    668     1  0.0000000  0.6508444  3
    661    660    667    669     1  0.0000000  0.6508444  3
    661    673    685    686     1  0.0000000  0.6508444  3
    661    673    685    687     1  0.0000000  0.6508444  3
    662    661    660    664     1  0.0000000  0.6508444  3
    662    661    660    667     1  0.0000000  0.6508444  3
    662    661    660    689     1  0.0000000  0.6508444  3
    662    661    673    685     1  0.0000000  0.6508444  3
    662    661    673    674     1  0.0000000  0.6508444  3
    662    661    673    675     1  0.0000000  0.6508444  3
    663    661    660    664     1  0.0000000  0.6508444  3
    663    661    660    667     1  0.0000000  0.6508444  3
    663    661    660    689     1  0.0000000  0.6508444  3
    663    661    673    685     1  0.0000000  0.6508444  3
    663    661    673    674     1  0.0000000  0.6508444  3
    663    661    673    675     1  0.0000000  0.6508444  3
    664    660    667    668     1  0.0000000  0.6508444  3
    664    660    667    669     1  0.0000000  0.6508444  3
    664    676    682    683     1  0.0000000  0.6508444  3
    664    676    682    684     1  0.0000000  0.6508444  3
    665    664    660    667     1  0.0000000  0.6508444  3
    665    664    660    689     1  0.0000000  0.6508444  3
    665    664    676    682     1  0.0000000  0.6508444  3
    665    664    676    677     1  0.0000000  0.6508444  3
    665    664    676    678     1  0.0000000  0.6508444  3
    666    664    660    667     1  0.0000000  0.6508444  3
    666    664    660    689     1  0.0000000  0.6508444  3
    666    664    676    682     1  0.0000000  0.6508444  3
    666    664    676    677     1  0.0000000  0.6508444  3
    666    664    676    678     1  0.0000000  0.6508444  3
    667    670    679    680     1  0.0000000  0.6508444  3
    667    670    679    681     1  0.0000000  0.6508444  3
    668    667    660    689     1  0.0000000  0.6508444  3
    668    667    670    679     1  0.0000000  0.6508444  3
    668    667    670    671     1  0.0000000  0.6508444  3
    668    667    670    672     1  0.0000000  0.6508444  3
    669    667    660    689     1  0.0000000  0.6508444  3
    669    667    670    679     1  0.0000000  0.6508444  3
    669    667    670    671     1  0.0000000  0.6508444  3
    669    667    670    672     1  0.0000000  0.6508444  3
    670    667    660    689     1  0.0000000  0.6508444  3
    671    670    679    688     1  0.0000000  1.0460000  1
    671    670    679    688     1  0.0000000  0.0000000  3
    671    670    679    680     1  0.0000000  0.6508444  3
    671    670    679    681     1  0.0000000  0.6508444  3
    672    670    679    688     1  0.0000000  1.0460000  1
    672    670    679    688     1  0.0000000  0.0000000  3
    672    670    679    680     1  0.0000000  0.6508444  3
    672    670    679    681     1  0.0000000  0.6508444  3
    673    661    660    689     1  0.0000000  0.6508444  3
    674    673    685   1438     1  0.0000000  1.0460000  1
    674    673    685   1438     1  0.0000000  0.0000000  3
    674    673    685    686     1  0.0000000  0.6508444  3
    674    673    685    687     1  0.0000000  0.6508444  3
    675    673    685   1438     1  0.0000000  1.0460000  1
    675    673    685   1438     1  0.0000000  0.0000000  3
    675    673    685    686     1  0.0000000  0.6508444  3
    675    673    685    687     1  0.0000000  0.6508444  3
    676    664    660    689     1  0.0000000  0.6508444  3
    677    676    682   1408     1  0.0000000  1.0460000  1
    677    676    682   1408     1  0.0000000  0.0000000  3
    677    676    682    683     1  0.0000000  0.6508444  3
    677    676    682    684     1  0.0000000  0.6508444  3
    678    676    682   1408     1  0.0000000  1.0460000  1
    678    676    682   1408     1  0.0000000  0.0000000  3
    678    676    682    683     1  0.0000000  0.6508444  3
    678    676    682    684     1  0.0000000  0.6508444  3
    682   1408   1399   1400     1  0.0000000  1.6038667  3
    682   1408   1399   1401     1  0.0000000  1.6038667  3
    683    682   1408   1399     1  0.0000000  1.6038667  3
    684    682   1408   1399     1  0.0000000  1.6038667  3
    685   1438   1429   1430     1  0.0000000  1.6038667  3
    685   1438   1429   1431     1  0.0000000  1.6038667  3
    686    685   1438   1429     1  0.0000000  1.6038667  3
    687    685   1438   1429     1  0.0000000  1.6038667  3
    690    691    703    704     1  0.0000000  0.6508444  3
    690    691    703    705     1  0.0000000  0.6508444  3
    690    694    706    707     1  0.0000000  0.6508444  3
    690    694    706    708     1  0.0000000  0.6508444  3
    690    697    700    701     1  0.0000000  0.6508444  3
    690    697    700    702     1  0.0000000  0.6508444  3
    691    690    694    695     1  0.0000000  0.6508444  3
    691    690    694    696     1  0.0000000  0.6508444  3
    691    690    697    698     1  0.0000000  0.6508444  3
    691    690    697    699     1  0.0000000  0.6508444  3
    691    703    715    716     1  0.0000000  0.6508444  3
    691    703    715    717     1  0.0000000  0.6508444  3
    692    691    690    694     1  0.0000000  0.6508444  3
    692    691    690    697     1  0.0000000  0.6508444  3
    692    691    690    719     1  0.0000000  0.6508444  3
    692    691    703    715     1  0.0000000  0.6508444  3
    692    691    703    704     1  0.0000000  0.6508444  3
    692    691    703    705     1  0.0000000  0.6508444  3
    693    691    690    694     1  0.0000000  0.6508444  3
    693    691    690    697     1  0.0000000  0.6508444  3
    693    691    690    719     1  0.0000000  0.6508444  3
    693    691    703    715     1  0.0000000  0.6508444  3
    693    691    703    704     1  0.0000000  0.6508444  3
    693    691    703    705     1  0.0000000  0.6508444  3
    694    690    697    698     1  0.0000000  0.6508444  3
    694    690    697    699     1  0.0000000  0.6508444  3
    694    706    712    713     1  0.0000000  0.6508444  3
    694    706    712    714     1  0.0000000  0.6508444  3
    695    694    690    697     1  0.0000000  0.6508444  3
    695    694    690    719     1  0.0000000  0.6508444  3
    695    694    706    712     1  0.0000000  0.6508444  3
    695    694    706    707     1  0.0000000  0.6508444  3
    695    694    706    708     1  0.0000000  0.6508444  3
    696    694    690    697     1  0.0000000  0.6508444  3
    696    694    690    719     1  0.0000000  0.6508444  3
    696    694    706    712     1  0.0000000  0.6508444  3
    696    694    706    707     1  0.0000000  0.6508444  3
    696    694    706    708     1  0.0000000  0.6508444  3
    697    700    709    710     1  0.0000000  0.6508444  3
    697    700    709    711     1  0.0000000  0.6508444  3
    698    697    690    719     1  0.0000000  0.6508444  3
    698    697    700    709     1  0.0000000  0.6508444  3
    698    697    700    701     1  0.0000000  0.6508444  3
    698    697    700    702     1  0.0000000  0.6508444  3
    699    697    690    719     1  0.0000000  0.6508444  3
    699    697    700    709     1  0.0000000  0.6508444  3
    699    697    700    701     1  0.0000000  0.6508444  3
    699    697    700    702     1  0.0000000  0.6508444  3
    700    697    690    719     1  0.0000000  0.6508444  3
    701    700    709    718     1  0.0000000  1.0460000  1
    701    700    709    718     1  0.0000000  0.0000000  3
    701    700    709    710     1  0.0000000  0.6508444  3
    701    700    709    711     1  0.0000000  0.6508444  3
    702    700    709    718     1  0.0000000  1.0460000  1
    702    700    709    718     1  0.0000000  0.0000000  3
    702    700    709    710     1  0.0000000  0.6508444  3
    702    700    709    711     1  0.0000000  0.6508444  3
    703    691    690    719     1  0.0000000  0.6508444  3
    704    703    715   1498     1  0.0000000  1.0460000  1
    704    703    715   1498     1  0.0000000  0.0000000  3
    704    703    715    716     1  0.0000000  0.6508444  3
    704    703    715    717     1  0.0000000  0.6508444  3
    705    703    715   1498     1  0.0000000  1.0460000  1
    705    703    715   1498     1  0.0000000  0.0000000  3
    705    703    715    716     1  0.0000000  0.6508444  3
    705    703    715    717     1  0.0000000  0.6508444  3
    706    694    690    719     1  0.0000000  0.6508444  3
    707    706    712   1468     1  0.0000000  1.0460000  1
    707    706    712   1468     1  0.0000000  0.0000000  3
    707    706    712    713     1  0.0000000  0.6508444  3
    707    706    712    714     1  0.0000000  0.6508444  3
    708    706    712   1468     1  0.0000000  1.0460000  1
    708    706    712   1468     1  0.0000000  0.0000000  3
    708    706    712    713     1  0.0000000  0.6508444  3
    708    706    712    714     1  0.0000000  0.6508444  3
    712   1468   1459   1460     1  0.0000000  1.6038667  3
    712   1468   1459   1461     1  0.0000000  1.6038667  3
    713    712   1468   1459     1  0.0000000  1.6038667  3
    714    712   1468   1459     1  0.0000000  1.6038667  3
    715   1498   1489   1490     1  0.0000000  1.6038667  3
    715   1498   1489   1491     1  0.0000000  1.6038667  3
    716    715   1498   1489     1  0.0000000  1.6038667  3
    717    715   1498   1489     1  0.0000000  1.6038667  3
    720    721    733    734     1  0.0000000  0.6508444  3
    720    721    733    735     1  0.0000000  0.6508444  3
    720    724    736    737     1  0.0000000  0.6508444  3
    720    724    736    738     1  0.0000000  0.6508444  3
    720    727    730    731     1  0.0000000  0.6508444  3
    720    727    730    732     1  0.0000000  0.6508444  3
    721    720    724    725     1  0.0000000  0.6508444  3
    721    720    724    726     1  0.0000000  0.6508444  3
    721    720    727    728     1  0.0000000  0.6508444  3
    721    720    727    729     1  0.0000000  0.6508444  3
    721    733    745    746     1  0.0000000  0.6508444  3
    721    733    745    747     1  0.0000000  0.6508444  3
    722    721    720    724     1  0.0000000  0.6508444  3
    722    721    720    727     1  0.0000000  0.6508444  3
    722    721    720    749     1  0.0000000  0.6508444  3
    722    721    733    745     1  0.0000000  0.6508444  3
    722    721    733    734     1  0.0000000  0.6508444  3
    722    721    733    735     1  0.0000000  0.6508444  3
    723    721    720    724     1  0.0000000  0.6508444  3
    723    721    720    727     1  0.0000000  0.6508444  3
    723    721    720    749     1  0.0000000  0.6508444  3
    723    721    733    745     1  0.0000000  0.6508444  3
    723    721    733    734     1  0.0000000  0.6508444  3
    723    721    733    735     1  0.0000000  0.6508444  3
    724    720    727    728     1  0.0000000  0.6508444  3
    724    720    727    729     1  0.0000000  0.6508444  3
    724    736    742    743     1  0.0000000  0.6508444  3
    724    736    742    744     1  0.0000000  0.6508444  3
    725    724    720    727     1  0.0000000  0.6508444  3
    725    724    720    749     1  0.0000000  0.6508444  3
    725    724    736    742     1  0.0000000  0.6508444  3
    725    724    736    737     1  0.0000000  0.6508444  3
    725    724    736    738     1  0.0000000  0.6508444  3
    726    724    720    727     1  0.0000000  0.6508444  3
    726    724    720    749     1  0.0000000  0.6508444  3
    726    724    736    742     1  0.0000000  0.6508444  3
    726    724    736    737     1  0.0000000  0.6508444  3
    726    724    736    738     1  0.0000000  0.6508444  3
    727    730    739    740     1  0.0000000  0.6508444  3
    727    730    739    741     1  0.0000000  0.6508444  3
    728    727    720    749     1  0.0000000  0.6508444  3
    728    727    730    739     1  0.0000000  0.6508444  3
    728    727    730    731     1  0.0000000  0.6508444  3
    728    727    730    732     1  0.0000000  0.6508444  3
    729    727    720    749     1  0.0000000  0.6508444  3
    729    727    730    739     1  0.0000000  0.6508444  3
    729    727    730    731     1  0.0000000  0.6508444  3
    729    727    730    732     1  0.0000000  0.6508444  3
    730    727    720    749     1  0.0000000  0.6508444  3
    731    730    739    748     1  0.0000000  1.0460000  1
    731    730    739    748     1  0.0000000  0.0000000  3
    731    730    739    740     1  0.0000000  0.6508444  3
    731    730    739    741     1  0.0000000  0.6508444  3
    732    730    739    748     1  0.0000000  1.0460000  1
    732    730    739    748     1  0.0000000  0.0000000  3
    732    730    739    740     1  0.0000000  0.6508444  3
    732    730    739    741     1  0.0000000  0.6508444  3
    733    721    720    749     1  0.0000000  0.6508444  3
    734    733    745   1558     1  0.0000000  1.0460000  1
    734    733    745   1558     1  0.0000000  0.0000000  3
    734    733    745    746     1  0.0000000  0.6508444  3
    734    733    745    747     1  0.0000000  0.6508444  3
    735    733    745   1558     1  0.0000000  1.0460000  1
    735    733    745   1558     1  0.0000000  0.0000000  3
    735    733    745    746     1  0.0000000  0.6508444  3
    735    733    745    747     1  0.0000000  0.6508444  3
    736    724    720    749     1  0.0000000  0.6508444  3
    737    736    742   1528     1  0.0000000  1.0460000  1
    737    736    742   1528     1  0.0000000  0.0000000  3
    737    736    742    743     1  0.0000000  0.6508444  3
    737    736    742    744     1  0.0000000  0.6508444  3
    738    736    742   1528     1  0.0000000  1.0460000  1
    738    736    742   1528     1  0.0000000  0.0000000  3
    738    736    742    743     1  0.0000000  0.6508444  3
    738    736    742    744     1  0.0000000  0.6508444  3
    742   1528   1519   1520     1  0.0000000  1.6038667  3
    742   1528   1519   1521     1  0.0000000  1.6038667  3
    743    742   1528   1519     1  0.0000000  1.6038667  3
    744    742   1528   1519     1  0.0000000  1.6038667  3
    745   1558   1549   1550     1  0.0000000  1.6038667  3
    745   1558   1549   1551     1  0.0000000  1.6038667  3
    746    745   1558   1549     1  0.0000000  1.6038667  3
    747    745   1558   1549     1  0.0000000  1.6038667  3
    750    751    763    764     1  0.0000000  0.6508444  3
    750    751    763    765     1  0.0000000  0.6508444  3
    750    754    766    767     1  0.0000000  0.6508444  3
    750    754    766    768     1  0.0000000  0.6508444  3
    750    757    760    761     1  0.0000000  0.6508444  3
    750    757    760    762     1  0.0000000  0.6508444  3
    751    750    754    755     1  0.0000000  0.6508444  3
    751    750    754    756     1  0.0000000  0.6508444  3
    751    750    757    758     1  0.0000000  0.6508444  3
    751    750    757    759     1  0.0000000  0.6508444  3
    751    763    775    776     1  0.0000000  0.6508444  3
    751    763    775    777     1  0.0000000  0.6508444  3
    752    751    750    754     1  0.0000000  0.6508444  3
    752    751    750    757     1  0.0000000  0.6508444  3
    752    751    750    779     1  0.0000000  0.6508444  3
    752    751    763    775     1  0.0000000  0.6508444  3
    752    751    763    764     1  0.0000000  0.6508444  3
    752    751    763    765     1  0.0000000  0.6508444  3
    753    751    750    754     1  0.0000000  0.6508444  3
    753    751    750    757     1  0.0000000  0.6508444  3
    753    751    750    779     1  0.0000000  0.6508444  3
    753    751    763    775     1  0.0000000  0.6508444  3
    753    751    763    764     1  0.0000000  0.6508444  3
    753    751    763    765     1  0.0000000  0.6508444  3
    754    750    757    758     1  0.0000000  0.6508444  3
    754    750    757    759     1  0.0000000  0.6508444  3
    754    766    772    773     1  0.0000000  0.6508444  3
    754    766    772    774     1  0.0000000  0.6508444  3
    755    754    750    757     1  0.0000000  0.6508444  3
    755    754    750    779     1  0.0000000  0.6508444  3
    755    754    766    772     1  0.0000000  0.6508444  3
    755    754    766    767     1  0.0000000  0.6508444  3
    755    754    766    768     1  0.0000000  0.6508444  3
    756    754    750    757     1  0.0000000  0.6508444  3
    756    754    750    779     1  0.0000000  0.6508444  3
    756    754    766    772     1  0.0000000  0.6508444  3
    756    754    766    767     1  0.0000000  0.6508444  3
    756    754    766    768     1  0.0000000  0.6508444  3
    757    760    769    770     1  0.0000000  0.6508444  3
    757    760    769    771     1  0.0000000  0.6508444  3
    758    757    750    779     1  0.0000000  0.6508444  3
    758    757    760    769     1  0.0000000  0.6508444  3
    758    757    760    761     1  0.0000000  0.6508444  3
    758    757    760    762     1  0.0000000  0.6508444  3
    759    757    750    779     1  0.0000000  0.6508444  3
    759    757    760    769     1  0.0000000  0.6508444  3
    759    757    760    761     1  0.0000000  0.6508444  3
    759    757    760    762     1  0.0000000  0.6508444  3
    760    757    750    779     1  0.0000000  0.6508444  3
    761    760    769    778     1  0.0000000  1.0460000  1
    761    760    769    778     1  0.0000000  0.0000000  3
    761    760    769    770     1  0.0000000  0.6508444  3
    761    760    769    771     1  0.0000000  0.6508444  3
    762    760    769    778     1  0.0000000  1.0460000  1
    762    760    769    778     1  0.0000000  0.0000000  3
    762    760    769    770     1  0.0000000  0.6508444  3
    762    760    769    771     1  0.0000000  0.6508444  3
    763    751    750    779     1  0.0000000  0.6508444  3
    764    763    775   1618     1  0.0000000  1.0460000  1
    764    763    775   1618     1  0.0000000  0.0000000  3
    764    763    775    776     1  0.0000000  0.6508444  3
    764    763    775    777     1  0.0000000  0.6508444  3
    765    763    775   1618     1  0.0000000  1.0460000  1
    765    763    775   1618     1  0.0000000  0.0000000  3
    765    763    775    776     1  0.0000000  0.6508444  3
    765    763    775    777     1  0.0000000  0.6508444  3
    766    754    750    779     1  0.0000000  0.6508444  3
    767    766    772   1588     1  0.0000000  1.0460000  1
    767    766    772   1588     1  0.0000000  0.0000000  3
    767    766    772    773     1  0.0000000  0.6508444  3
    767    766    772    774     1  0.0000000  0.6508444  3
    768    766    772   1588     1  0.0000000  1.0460000  1
    768    766    772   1588     1  0.0000000  0.0000000  3
    768    766    772    773     1  0.0000000  0.6508444  3
    768    766    772    774     1  0.0000000  0.6508444  3
    772   1588   1579   1580     1  0.0000000  1.6038667  3
    772   1588   1579   1581     1  0.0000000  1.6038667  3
    773    772   1588   1579     1  0.0000000  1.6038667  3
    774    772   1588   1579     1  0.0000000  1.6038667  3
    775   1618   1609   1610     1  0.0000000  1.6038667  3
    775   1618   1609   1611     1  0.0000000  1.6038667  3
    776    775   1618   1609     1  0.0000000  1.6038667  3
    777    775   1618   1609     1  0.0000000  1.6038667  3
    780    781    793    794     1  0.0000000  0.6508444  3
    780    781    793    795     1  0.0000000  0.6508444  3
    780    784    796    797     1  0.0000000  0.6508444  3
    780    784    796    798     1  0.0000000  0.6508444  3
    780    787    790    791     1  0.0000000  0.6508444  3
    780    787    790    792     1  0.0000000  0.6508444  3
    781    780    784    785     1  0.0000000  0.6508444  3
    781    780    784    786     1  0.0000000  0.6508444  3
    781    780    787    788     1  0.0000000  0.6508444  3
    781    780    787    789     1  0.0000000  0.6508444  3
    781    793    805    806     1  0.0000000  0.6508444  3
    781    793    805    807     1  0.0000000  0.6508444  3
    782    781    780    784     1  0.0000000  0.6508444  3
    782    781    780    787     1  0.0000000  0.6508444  3
    782    781    780    809     1  0.0000000  0.6508444  3
    782    781    793    805     1  0.0000000  0.6508444  3
    782    781    793    794     1  0.0000000  0.6508444  3
    782    781    793    795     1  0.0000000  0.6508444  3
    783    781    780    784     1  0.0000000  0.6508444  3
    783    781    780    787     1  0.0000000  0.6508444  3
    783    781    780    809     1  0.0000000  0.6508444  3
    783    781    793    805     1  0.0000000  0.6508444  3
    783    781    793    794     1  0.0000000  0.6508444  3
    783    781    793    795     1  0.0000000  0.6508444  3
    784    780    787    788     1  0.0000000  0.6508444  3
    784    780    787    789     1  0.0000000  0.6508444  3
    784    796    802    803     1  0.0000000  0.6508444  3
    784    796    802    804     1  0.0000000  0.6508444  3
    785    784    780    787     1  0.0000000  0.6508444  3
    785    784    780    809     1  0.0000000  0.6508444  3
    785    784    796    802     1  0.0000000  0.6508444  3
    785    784    796    797     1  0.0000000  0.6508444  3
    785    784    796    798     1  0.0000000  0.6508444  3
    786    784    780    787     1  0.0000000  0.6508444  3
    786    784    780    809     1  0.0000000  0.6508444  3
    786    784    796    802     1  0.0000000  0.6508444  3
    786    784    796    797     1  0.0000000  0.6508444  3
    786    784    796    798     1  0.0000000  0.6508444  3
    787    790    799    800     1  0.0000000  0.6508444  3
    787    790    799    801     1  0.0000000  0.6508444  3
    788    787    780    809     1  0.0000000  0.6508444  3
    788    787    790    799     1  0.0000000  0.6508444  3
    788    787    790    791     1  0.0000000  0.6508444  3
    788    787    790    792     1  0.0000000  0.6508444  3
    789    787    780    809     1  0.0000000  0.6508444  3
    789    787    790    799     1  0.0000000  0.6508444  3
    789    787    790    791     1  0.0000000  0.6508444  3
    789    787    790    792     1  0.0000000  0.6508444  3
    790    787    780    809     1  0.0000000  0.6508444  3
    791    790    799    808     1  0.0000000  1.0460000  1
    791    790    799    808     1  0.0000000  0.0000000  3
    791    790    799    800     1  0.0000000  0.6508444  3
    791    790    799    801     1  0.0000000  0.6508444  3
    792    790    799    808     1  0.0000000  1.0460000  1
    792    790    799    808     1  0.0000000  0.0000000  3
    792    790    799    800     1  0.0000000  0.6508444  3
    792    790    799    801     1  0.0000000  0.6508444  3
    793    781    780    809     1  0.0000000  0.6508444  3
    794    793    805   1678     1  0.0000000  1.0460000  1
    794    793    805   1678     1  0.0000000  0.0000000  3
    794    793    805    806     1  0.0000000  0.6508444  3
    794    793    805    807     1  0.0000000  0.6508444  3
    795    793    805   1678     1  0.0000000  1.0460000  1
    795    793    805   1678     1  0.0000000  0.0000000  3
    795    793    805    806     1  0.0000000  0.6508444  3
    795    793    805    807     1  0.0000000  0.6508444  3
    796    784    780    809     1  0.0000000  0.6508444  3
    797    796    802   1648     1  0.0000000  1.0460000  1
    797    796    802   1648     1  0.0000000  0.0000000  3
    797    796    802    803     1  0.0000000  0.6508444  3
    797    796    802    804     1  0.0000000  0.6508444  3
    798    796    802   1648     1  0.0000000  1.0460000  1
    798    796    802   1648     1  0.0000000  0.0000000  3
    798    796    802    803     1  0.0000000  0.6508444  3
    798    796    802    804     1  0.0000000  0.6508444  3
    802   1648   1639   1640     1  0.0000000  1.6038667  3
    802   1648   1639   1641     1  0.0000000  1.6038667  3
    803    802   1648   1639     1  0.0000000  1.6038667  3
    804    802   1648   1639     1  0.0000000  1.6038667  3
    805   1678   1669   1670     1  0.0000000  1.6038667  3
    805   1678   1669   1671     1  0.0000000  1.6038667  3
    806    805   1678   1669     1  0.0000000  1.6038667  3
    807    805   1678   1669     1  0.0000000  1.6038667  3
    810    811    823    824     1  0.0000000  0.6508444  3
    810    811    823    825     1  0.0000000  0.6508444  3
    810    814    826    827     1  0.0000000  0.6508444  3
    810    814    826    828     1  0.0000000  0.6508444  3
    810    817    820    821     1  0.0000000  0.6508444  3
    810    817    820    822     1  0.0000000  0.6508444  3
    811    810    814    815     1  0.0000000  0.6508444  3
    811    810    814    816     1  0.0000000  0.6508444  3
    811    810    817    818     1  0.0000000  0.6508444  3
    811    810    817    819     1  0.0000000  0.6508444  3
    811    823    835    836     1  0.0000000  0.6508444  3
    811    823    835    837     1  0.0000000  0.6508444  3
    812    811    810    814     1  0.0000000  0.6508444  3
    812    811    810    817     1  0.0000000  0.6508444  3
    812    811    810    839     1  0.0000000  0.6508444  3
    812    811    823    835     1  0.0000000  0.6508444  3
    812    811    823    824     1  0.0000000  0.6508444  3
    812    811    823    825     1  0.0000000  0.6508444  3
    813    811    810    814     1  0.0000000  0.6508444  3
    813    811    810    817     1  0.0000000  0.6508444  3
    813    811    810    839     1  0.0000000  0.6508444  3
    813    811    823    835     1  0.0000000  0.6508444  3
    813    811    823    824     1  0.0000000  0.6508444  3
    813    811    823    825     1  0.0000000  0.6508444  3
    814    810    817    818     1  0.0000000  0.6508444  3
    814    810    817    819     1  0.0000000  0.6508444  3
    814    826    832    833     1  0.0000000  0.6508444  3
    814    826    832    834     1  0.0000000  0.6508444  3
    815    814    810    817     1  0.0000000  0.6508444  3
    815    814    810    839     1  0.0000000  0.6508444  3
    815    814    826    832     1  0.0000000  0.6508444  3
    815    814    826    827     1  0.0000000  0.6508444  3
    815    814    826    828     1  0.0000000  0.6508444  3
    816    814    810    817     1  0.0000000  0.6508444  3
    816    814    810    839     1  0.0000000  0.6508444  3
    816    814    826    832     1  0.0000000  0.6508444  3
    816    814    826    827     1  0.0000000  0.6508444  3
    816    814    826    828     1  0.0000000  0.6508444  3
    817    820    829    830     1  0.0000000  0.6508444  3
    817    820    829    831     1  0.0000000  0.6508444  3
    818    817    810    839     1  0.0000000  0.6508444  3
    818    817    820    829     1  0.0000000  0.6508444  3
    818    817    820    821     1  0.0000000  0.6508444  3
    818    817    820    822     1  0.0000000  0.6508444  3
    819    817    810    839     1  0.0000000  0.6508444  3
    819    817    820    829     1  0.0000000  0.6508444  3
    819    817    820    821     1  0.0000000  0.6508444  3
    819    817    820    822     1  0.0000000  0.6508444  3
    820    817    810    839     1  0.0000000  0.6508444  3
    821    820    829    838     1  0.0000000  1.0460000  1
    821    820    829    838     1  0.0000000  0.0000000  3
    821    820    829    830     1  0.0000000  0.6508444  3
    821    820    829    831     1  0.0000000  0.6508444  3
    822    820    829    838     1  0.0000000  1.0460000  1
    822    820    829    838     1  0.0000000  0.0000000  3
    822    820    829    830     1  0.0000000  0.6508444  3
    822    820    829    831     1  0.0000000  0.6508444  3
    823    811    810    839     1  0.0000000  0.6508444  3
    824    823    835   1738     1  0.0000000  1.0460000  1
    824    823    835   1738     1  0.0000000  0.0000000  3
    824    823    835    836     1  0.0000000  0.6508444  3
    824    823    835    837     1  0.0000000  0.6508444  3
    825    823    835   1738     1  0.0000000  1.0460000  1
    825    823    835   1738     1  0.0000000  0.0000000  3
    825    823    835    836     1  0.0000000  0.6508444  3
    825    823    835    837     1  0.0000000  0.6508444  3
    826    814    810    839     1  0.0000000  0.6508444  3
    827    826    832   1708     1  0.0000000  1.0460000  1
    827    826    832   1708     1  0.0000000  0.0000000  3
    827    826    832    833     1  0.0000000  0.6508444  3
    827    826    832    834     1  0.0000000  0.6508444  3
    828    826    832   1708     1  0.0000000  1.0460000  1
    828    826    832   1708     1  0.0000000  0.0000000  3
    828    826    832    833     1  0.0000000  0.6508444  3
    828    826    832    834     1  0.0000000  0.6508444  3
    832   1708   1699   1700     1  0.0000000  1.6038667  3
    832   1708   1699   1701     1  0.0000000  1.6038667  3
    833    832   1708   1699     1  0.0000000  1.6038667  3
    834    832   1708   1699     1  0.0000000  1.6038667  3
    835   1738   1729   1730     1  0.0000000  1.6038667  3
    835   1738   1729   1731     1  0.0000000  1.6038667  3
    836    835   1738   1729     1  0.0000000  1.6038667  3
    837    835   1738   1729     1  0.0000000  1.6038667  3
    840    841    853    854     1  0.0000000  0.6508444  3
    840    841    853    855     1  0.0000000  0.6508444  3
    840    844    856    857     1  0.0000000  0.6508444  3
    840    844    856    858     1  0.0000000  0.6508444  3
    840    847    850    851     1  0.0000000  0.6508444  3
    840    847    850    852     1  0.0000000  0.6508444  3
    841    840    844    845     1  0.0000000  0.6508444  3
    841    840    844    846     1  0.0000000  0.6508444  3
    841    840    847    848     1  0.0000000  0.6508444  3
    841    840    847    849     1  0.0000000  0.6508444  3
    841    853    865    866     1  0.0000000  0.6508444  3
    841    853    865    867     1  0.0000000  0.6508444  3
    842    841    840    844     1  0.0000000  0.6508444  3
    842    841    840    847     1  0.0000000  0.6508444  3
    842    841    840    869     1  0.0000000  0.6508444  3
    842    841    853    865     1  0.0000000  0.6508444  3
    842    841    853    854     1  0.0000000  0.6508444  3
    842    841    853    855     1  0.0000000  0.6508444  3
    843    841    840    844     1  0.0000000  0.6508444  3
    843    841    840    847     1  0.0000000  0.6508444  3
    843    841    840    869     1  0.0000000  0.6508444  3
    843    841    853    865     1  0.0000000  0.6508444  3
    843    841    853    854     1  0.0000000  0.6508444  3
    843    841    853    855     1  0.0000000  0.6508444  3
    844    840    847    848     1  0.0000000  0.6508444  3
    844    840    847    849     1  0.0000000  0.6508444  3
    844    856    862    863     1  0.0000000  0.6508444  3
    844    856    862    864     1  0.0000000  0.6508444  3
    845    844    840    847     1  0.0000000  0.6508444  3
    845    844    840    869     1  0.0000000  0.6508444  3
    845    844    856    862     1  0.0000000  0.6508444  3
    845    844    856    857     1  0.0000000  0.6508444  3
    845    844    856    858     1  0.0000000  0.6508444  3
    846    844    840    847     1  0.0000000  0.6508444  3
    846    844    840    869     1  0.0000000  0.6508444  3
    846    844    856    862     1  0.0000000  0.6508444  3
    846    844    856    857     1  0.0000000  0.6508444  3
    846    844    856    858     1  0.0000000  0.6508444  3
    847    850    859    860     1  0.0000000  0.6508444  3
    847    850    859    861     1  0.0000000  0.6508444  3
    848    847    840    869     1  0.0000000  0.6508444  3
    848    847    850    859     1  0.0000000  0.6508444  3
    848    847    850    851     1  0.0000000  0.6508444  3
    848    847    850    852     1  0.0000000  0.6508444  3
    849    847    840    869     1  0.0000000  0.6508444  3
    849    847    850    859     1  0.0000000  0.6508444  3
    849    847    850    851     1  0.0000000  0.6508444  3
    849    847    850    852     1  0.0000000  0.6508444  3
    850    847    840    869     1  0.0000000  0.6508444  3
    851    850    859    868     1  0.0000000  1.0460000  1
    851    850    859    868     1  0.0000000  0.0000000  3
    851    850    859    860     1  0.0000000  0.6508444  3
    851    850    859    861     1  0.0000000  0.6508444  3
    852    850    859    868     1  0.0000000  1.0460000  1
    852    850    859    868     1  0.0000000  0.0000000  3
    852    850    859    860     1  0.0000000  0.6508444  3
    852    850    859    861     1  0.0000000  0.6508444  3
    853    841    840    869     1  0.0000000  0.6508444  3
    854    853    865   1798     1  0.0000000  1.0460000  1
    854    853    865   1798     1  0.0000000  0.0000000  3
    854    853    865    866     1  0.0000000  0.6508444  3
    854    853    865    867     1  0.0000000  0.6508444  3
    855    853    865   1798     1  0.0000000  1.0460000  1
    855    853    865   1798     1  0.0000000  0.0000000  3
    855    853    865    866     1  0.0000000  0.6508444  3
    855    853    865    867     1  0.0000000  0.6508444  3
    856    844    840    869     1  0.0000000  0.6508444  3
    857    856    862   1768     1  0.0000000  1.0460000  1
    857    856    862   1768     1  0.0000000  0.0000000  3
    857    856    862    863     1  0.0000000  0.6508444  3
    857    856    862    864     1  0.0000000  0.6508444  3
    858    856    862   1768     1  0.0000000  1.0460000  1
    858    856    862   1768     1  0.0000000  0.0000000  3
    858    856    862    863     1  0.0000000  0.6508444  3
    858    856    862    864     1  0.0000000  0.6508444  3
    862   1768   1759   1760     1  0.0000000  1.6038667  3
    862   1768   1759   1761     1  0.0000000  1.6038667  3
    863    862   1768   1759     1  0.0000000  1.6038667  3
    864    862   1768   1759     1  0.0000000  1.6038667  3
    865   1798   1789   1790     1  0.0000000  1.6038667  3
    865   1798   1789   1791     1  0.0000000  1.6038667  3
    866    865   1798   1789     1  0.0000000  1.6038667  3
    867    865   1798   1789     1  0.0000000  1.6038667  3
    870    871    883    884     1  0.0000000  0.6508444  3
    870    871    883    885     1  0.0000000  0.6508444  3
    870    874    886    887     1  0.0000000  0.6508444  3
    870    874    886    888     1  0.0000000  0.6508444  3
    870    877    880    881     1  0.0000000  0.6508444  3
    870    877    880    882     1  0.0000000  0.6508444  3
    871    870    874    875     1  0.0000000  0.6508444  3
    871    870    874    876     1  0.0000000  0.6508444  3
    871    870    877    878     1  0.0000000  0.6508444  3
    871    870    877    879     1  0.0000000  0.6508444  3
    871    883    895    896     1  0.0000000  0.6508444  3
    871    883    895    897     1  0.0000000  0.6508444  3
    872    871    870    874     1  0.0000000  0.6508444  3
    872    871    870    877     1  0.0000000  0.6508444  3
    872    871    870    899     1  0.0000000  0.6508444  3
    872    871    883    895     1  0.0000000  0.6508444  3
    872    871    883    884     1  0.0000000  0.6508444  3
    872    871    883    885     1  0.0000000  0.6508444  3
    873    871    870    874     1  0.0000000  0.6508444  3
    873    871    870    877     1  0.0000000  0.6508444  3
    873    871    870    899     1  0.0000000  0.6508444  3
    873    871    883    895     1  0.0000000  0.6508444  3
    873    871    883    884     1  0.0000000  0.6508444  3
    873    871    883    885     1  0.0000000  0.6508444  3
    874    870    877    878     1  0.0000000  0.6508444  3
    874    870    877    879     1  0.0000000  0.6508444  3
    874    886    892    893     1  0.0000000  0.6508444  3
    874    886    892    894     1  0.0000000  0.6508444  3
    875    874    870    877     1  0.0000000  0.6508444  3
    875    874    870    899     1  0.0000000  0.6508444  3
    875    874    886    892     1  0.0000000  0.6508444  3
    875    874    886    887     1  0.0000000  0.6508444  3
    875    874    886    888     1  0.0000000  0.6508444  3
    876    874    870    877     1  0.0000000  0.6508444  3
    876    874    870    899     1  0.0000000  0.6508444  3
    876    874    886    892     1  0.0000000  0.6508444  3
    876    874    886    887     1  0.0000000  0.6508444  3
    876    874    886    888     1  0.0000000  0.6508444  3
    877    880    889    890     1  0.0000000  0.6508444  3
    877    880    889    891     1  0.0000000  0.6508444  3
    878    877    870    899     1  0.0000000  0.6508444  3
    878    877    880    889     1  0.0000000  0.6508444  3
    878    877    880    881     1  0.0000000  0.6508444  3
    878    877    880    882     1  0.0000000  0.6508444  3
    879    877    870    899     1  0.0000000  0.6508444  3
    879    877    880    889     1  0.0000000  0.6508444  3
    879    877    880    881     1  0.0000000  0.6508444  3
    879    877    880    882     1  0.0000000  0.6508444  3
    880    877    870    899     1  0.0000000  0.6508444  3
    881    880    889    898     1  0.0000000  1.0460000  1
    881    880    889    898     1  0.0000000  0.0000000  3
    881    880    889    890     1  0.0000000  0.6508444  3
    881    880    889    891     1  0.0000000  0.6508444  3
    882    880    889    898     1  0.0000000  1.0460000  1
    882    880    889    898     1  0.0000000  0.0000000  3
    882    880    889    890     1  0.0000000  0.6508444  3
    882    880    889    891     1  0.0000000  0.6508444  3
    883    871    870    899     1  0.0000000  0.6508444  3
    884    883    895   1858     1  0.0000000  1.0460000  1
    884    883    895   1858     1  0.0000000  0.0000000  3
    884    883    895    896     1  0.0000000  0.6508444  3
    884    883    895    897     1  0.0000000  0.6508444  3
    885    883    895   1858     1  0.0000000  1.0460000  1
    885    883    895   1858     1  0.0000000  0.0000000  3
    885    883    895    896     1  0.0000000  0.6508444  3
    885    883    895    897     1  0.0000000  0.6508444  3
    886    874    870    899     1  0.0000000  0.6508444  3
    887    886    892   1828     1  0.0000000  1.0460000  1
    887    886    892   1828     1  0.0000000  0.0000000  3
    887    886    892    893     1  0.0000000  0.6508444  3
    887    886    892    894     1  0.0000000  0.6508444  3
    888    886    892   1828     1  0.0000000  1.0460000  1
    888    886    892   1828     1  0.0000000  0.0000000  3
    888    886    892    893     1  0.0000000  0.6508444  3
    888    886    892    894     1  0.0000000  0.6508444  3
    892   1828   1819   1820     1  0.0000000  1.6038667  3
    892   1828   1819   1821     1  0.0000000  1.6038667  3
    893    892   1828   1819     1  0.0000000  1.6038667  3
    894    892   1828   1819     1  0.0000000  1.6038667  3
    895   1858   1849   1850     1  0.0000000  1.6038667  3
    895   1858   1849   1851     1  0.0000000  1.6038667  3
    896    895   1858   1849     1  0.0000000  1.6038667  3
    897    895   1858   1849     1  0.0000000  1.6038667  3
    900    901    913    914     1  0.0000000  0.6508444  3
    900    901    913    915     1  0.0000000  0.6508444  3
    900    904    916    917     1  0.0000000  0.6508444  3
    900    904    916    918     1  0.0000000  0.6508444  3
    900    907    910    911     1  0.0000000  0.6508444  3
    900    907    910    912     1  0.0000000  0.6508444  3
    901    900    904    905     1  0.0000000  0.6508444  3
    901    900    904    906     1  0.0000000  0.6508444  3
    901    900    907    908     1  0.0000000  0.6508444  3
    901    900    907    909     1  0.0000000  0.6508444  3
    901    913    925    926     1  0.0000000  0.6508444  3
    901    913    925    927     1  0.0000000  0.6508444  3
    902    901    900    904     1  0.0000000  0.6508444  3
    902    901    900    907     1  0.0000000  0.6508444  3
    902    901    900    929     1  0.0000000  0.6508444  3
    902    901    913    925     1  0.0000000  0.6508444  3
    902    901    913    914     1  0.0000000  0.6508444  3
    902    901    913    915     1  0.0000000  0.6508444  3
    903    901    900    904     1  0.0000000  0.6508444  3
    903    901    900    907     1  0.0000000  0.6508444  3
    903    901    900    929     1  0.0000000  0.6508444  3
    903    901    913    925     1  0.0000000  0.6508444  3
    903    901    913    914     1  0.0000000  0.6508444  3
    903    901    913    915     1  0.0000000  0.6508444  3
    904    900    907    908     1  0.0000000  0.6508444  3
    904    900    907    909     1  0.0000000  0.6508444  3
    904    916    922    923     1  0.0000000  0.6508444  3
    904    916    922    924     1  0.0000000  0.6508444  3
    905    904    900    907     1  0.0000000  0.6508444  3
    905    904    900    929     1  0.0000000  0.6508444  3
    905    904    916    922     1  0.0000000  0.6508444  3
    905    904    916    917     1  0.0000000  0.6508444  3
    905    904    916    918     1  0.0000000  0.6508444  3
    906    904    900    907     1  0.0000000  0.6508444  3
    906    904    900    929     1  0.0000000  0.6508444  3
    906    904    916    922     1  0.0000000  0.6508444  3
    906    904    916    917     1  0.0000000  0.6508444  3
    906    904    916    918     1  0.0000000  0.6508444  3
    907    910    919    920     1  0.0000000  0.6508444  3
    907    910    919    921     1  0.0000000  0.6508444  3
    908    907    900    929     1  0.0000000  0.6508444  3
    908    907    910    919     1  0.0000000  0.6508444  3
    908    907    910    911     1  0.0000000  0.6508444  3
    908    907    910    912     1  0.0000000  0.6508444  3
    909    907    900    929     1  0.0000000  0.6508444  3
    909    907    910    919     1  0.0000000  0.6508444  3
    909    907    910    911     1  0.0000000  0.6508444  3
    909    907    910    912     1  0.0000000  0.6508444  3
    910    907    900    929     1  0.0000000  0.6508444  3
    911    910    919    928     1  0.0000000  1.0460000  1
    911    910    919    928     1  0.0000000  0.0000000  3
    911    910    919    920     1  0.0000000  0.6508444  3
    911    910    919    921     1  0.0000000  0.6508444  3
    912    910    919    928     1  0.0000000  1.0460000  1
    912    910    919    928     1  0.0000000  0.0000000  3
    912    910    919    920     1  0.0000000  0.6508444  3
    912    910    919    921     1  0.0000000  0.6508444  3
    913    901    900    929     1  0.0000000  0.6508444  3
    914    913    925   1886     1  0.0000000  1.0460000  1
    914    913    925   1886     1  0.0000000  0.0000000  3
    914    913    925    926     1  0.0000000  0.6508444  3
    914    913    925    927     1  0.0000000  0.6508444  3
    915    913    925   1886     1  0.0000000  1.0460000  1
    915    913    925   1886     1  0.0000000  0.0000000  3
    915    913    925    926     1  0.0000000  0.6508444  3
    915    913    925    927     1  0.0000000  0.6508444  3
    916    904    900    929     1  0.0000000  0.6508444  3
    917    916    922   1872     1  0.0000000  1.0460000  1
    917    916    922   1872     1  0.0000000  0.0000000  3
    917    916    922    923     1  0.0000000  0.6508444  3
    917    916    922    924     1  0.0000000  0.6508444  3
    918    916    922   1872     1  0.0000000  1.0460000  1
    918    916    922   1872     1  0.0000000  0.0000000  3
    918    916    922    923     1  0.0000000  0.6508444  3
    918    916    922    924     1  0.0000000  0.6508444  3
    922   1872   1866   1867     1  0.0000000  1.6038667  3
    922   1872   1866   1868     1  0.0000000  1.6038667  3
    923    922   1872   1866     1  0.0000000  1.6038667  3
    924    922   1872   1866     1  0.0000000  1.6038667  3
    925   1886   1880   1881     1  0.0000000  1.6038667  3
    925   1886   1880   1882     1  0.0000000  1.6038667  3
    926    925   1886   1880     1  0.0000000  1.6038667  3
    927    925   1886   1880     1  0.0000000  1.6038667  3
    930    931    943    944     1  0.0000000  0.6508444  3
    930    931    943    945     1  0.0000000  0.6508444  3
    930    934    946    947     1  0.0000000  0.6508444  3
    930    934    946    948     1  0.0000000  0.6508444  3
    930    937    940    941     1  0.0000000  0.6508444  3
    930    937    940    942     1  0.0000000  0.6508444  3
    931    930    934    935     1  0.0000000  0.6508444  3
    931    930    934    936     1  0.0000000  0.6508444  3
    931    930    937    938     1  0.0000000  0.6508444  3
    931    930    937    939     1  0.0000000  0.6508444  3
    931    943    955    956     1  0.0000000  0.6508444  3
    931    943    955    957     1  0.0000000  0.6508444  3
    932    931    930    934     1  0.0000000  0.6508444  3
    932    931    930    937     1  0.0000000  0.6508444  3
    932    931    930    959     1  0.0000000  0.6508444  3
    932    931    943    955     1  0.0000000  0.6508444  3
    932    931    943    944     1  0.0000000  0.6508444  3
    932    931    943    945     1  0.0000000  0.6508444  3
    933    931    930    934     1  0.0000000  0.6508444  3
    933    931    930    937     1  0.0000000  0.6508444  3
    933    931    930    959     1  0.0000000  0.6508444  3
    933    931    943    955     1  0.0000000  0.6508444  3
    933    931    943    944     1  0.0000000  0.6508444  3
    933    931    943    945     1  0.0000000  0.6508444  3
    934    930    937    938     1  0.0000000  0.6508444  3
    934    930    937    939     1  0.0000000  0.6508444  3
    934    946    952    953     1  0.0000000  0.6508444  3
    934    946    952    954     1  0.0000000  0.6508444  3
    935    934    930    937     1  0.0000000  0.6508444  3
    935    934    930    959     1  0.0000000  0.6508444  3
    935    934    946    952     1  0.0000000  0.6508444  3
    935    934    946    947     1  0.0000000  0.6508444  3
    935    934    946    948     1  0.0000000  0.6508444  3
    936    934    930    937     1  0.0000000  0.6508444  3
    936    934    930    959     1  0.0000000  0.6508444  3
    936    934    946    952     1  0.0000000  0.6508444  3
    936    934    946    947     1  0.0000000  0.6508444  3
    936    934    946    948     1  0.0000000  0.6508444  3
    937    940    949    950     1  0.0000000  0.6508444  3
    937    940    949    951     1  0.0000000  0.6508444  3
    938    937    930    959     1  0.0000000  0.6508444  3
    938    937    940    949     1  0.0000000  0.6508444  3
    938    937    940    941     1  0.0000000  0.6508444  3
    938    937    940    942     1  0.0000000  0.6508444  3
    939    937    930    959     1  0.0000000  0.6508444  3
    939    937    940    949     1  0.0000000  0.6508444  3
    939    937    940    941     1  0.0000000  0.6508444  3
    939    937    940    942     1  0.0000000  0.6508444  3
    940    937    930    959     1  0.0000000  0.6508444  3
    941    940    949    958     1  0.0000000  1.0460000  1
    941    940    949    958     1  0.0000000  0.0000000  3
    941    940    949    950     1  0.0000000  0.6508444  3
    941    940    949    951     1  0.0000000  0.6508444  3
    942    940    949    958     1  0.0000000  1.0460000  1
    942    940    949    958     1  0.0000000  0.0000000  3
    942    940    949    950     1  0.0000000  0.6508444  3
    942    940    949    951     1  0.0000000  0.6508444  3
    943    931    930    959     1  0.0000000  0.6508444  3
    944    943    955   1914     1  0.0000000  1.0460000  1
    944    943    955   1914     1  0.0000000  0.0000000  3
    944    943    955    956     1  0.0000000  0.6508444  3
    944    943    955    957     1  0.0000000  0.6508444  3
    945    943    955   1914     1  0.0000000  1.0460000  1
    945    943    955   1914     1  0.0000000  0.0000000  3
    945    943    955    956     1  0.0000000  0.6508444  3
    945    943    955    957     1  0.0000000  0.6508444  3
    946    934    930    959     1  0.0000000  0.6508444  3
    947    946    952   1900     1  0.0000000  1.0460000  1
    947    946    952   1900     1  0.0000000  0.0000000  3
    947    946    952    953     1  0.0000000  0.6508444  3
    947    946    952    954     1  0.0000000  0.6508444  3
    948    946    952   1900     1  0.0000000  1.0460000  1
    948    946    952   1900     1  0.0000000  0.0000000  3
    948    946    952    953     1  0.0000000  0.6508444  3
    948    946    952    954     1  0.0000000  0.6508444  3
    952   1900   1894   1895     1  0.0000000  1.6038667  3
    952   1900   1894   1896     1  0.0000000  1.6038667  3
    953    952   1900   1894     1  0.0000000  1.6038667  3
    954    952   1900   1894     1  0.0000000  1.6038667  3
    955   1914   1908   1909     1  0.0000000  1.6038667  3
    955   1914   1908   1910     1  0.0000000  1.6038667  3
    956    955   1914   1908     1  0.0000000  1.6038667  3
    957    955   1914   1908     1  0.0000000  1.6038667  3
    960    961    973    974     1  0.0000000  0.6508444  3
    960    961    973    975     1  0.0000000  0.6508444  3
    960    964    976    977     1  0.0000000  0.6508444  3
    960    964    976    978     1  0.0000000  0.6508444  3
    960    967    970    971     1  0.0000000  0.6508444  3
    960    967    970    972     1  0.0000000  0.6508444  3
    961    960    964    965     1  0.0000000  0.6508444  3
    961    960    964    966     1  0.0000000  0.6508444  3
    961    960    967    968     1  0.0000000  0.6508444  3
    961    960    967    969     1  0.0000000  0.6508444  3
    961    973    985    986     1  0.0000000  0.6508444  3
    961    973    985    987     1  0.0000000  0.6508444  3
    962    961    960    964     1  0.0000000  0.6508444  3
    962    961    960    967     1  0.0000000  0.6508444  3
    962    961    960    989     1  0.0000000  0.6508444  3
    962    961    973    985     1  0.0000000  0.6508444  3
    962    961    973    974     1  0.0000000  0.6508444  3
    962    961    973    975     1  0.0000000  0.6508444  3
    963    961    960    964     1  0.0000000  0.6508444  3
    963    961    960    967     1  0.0000000  0.6508444  3
    963    961    960    989     1  0.0000000  0.6508444  3
    963    961    973    985     1  0.0000000  0.6508444  3
    963    961    973    974     1  0.0000000  0.6508444  3
    963    961    973    975     1  0.0000000  0.6508444  3
    964    960    967    968     1  0.0000000  0.6508444  3
    964    960    967    969     1  0.0000000  0.6508444  3
    964    976    982    983     1  0.0000000  0.6508444  3
    964    976    982    984     1  0.0000000  0.6508444  3
    965    964    960    967     1  0.0000000  0.6508444  3
    965    964    960    989     1  0.0000000  0.6508444  3
    965    964    976    982     1  0.0000000  0.6508444  3
    965    964    976    977     1  0.0000000  0.6508444  3
    965    964    976    978     1  0.0000000  0.6508444  3
    966    964    960    967     1  0.0000000  0.6508444  3
    966    964    960    989     1  0.0000000  0.6508444  3
    966    964    976    982     1  0.0000000  0.6508444  3
    966    964    976    977     1  0.0000000  0.6508444  3
    966    964    976    978     1  0.0000000  0.6508444  3
    967    970    979    980     1  0.0000000  0.6508444  3
    967    970    979    981     1  0.0000000  0.6508444  3
    968    967    960    989     1  0.0000000  0.6508444  3
    968    967    970    979     1  0.0000000  0.6508444  3
    968    967    970    971     1  0.0000000  0.6508444  3
    968    967    970    972     1  0.0000000  0.6508444  3
    969    967    960    989     1  0.0000000  0.6508444  3
    969    967    970    979     1  0.0000000  0.6508444  3
    969    967    970    971     1  0.0000000  0.6508444  3
    969    967    970    972     1  0.0000000  0.6508444  3
    970    967    960    989     1  0.0000000  0.6508444  3
    971    970    979    988     1  0.0000000  1.0460000  1
    971    970    979    988     1  0.0000000  0.0000000  3
    971    970    979    980     1  0.0000000  0.6508444  3
    971    970    979    981     1  0.0000000  0.6508444  3
    972    970    979    988     1  0.0000000  1.0460000  1
    972    970    979    988     1  0.0000000  0.0000000  3
    972    970    979    980     1  0.0000000  0.6508444  3
    972    970    979    981     1  0.0000000  0.6508444  3
    973    961    960    989     1  0.0000000  0.6508444  3
    974    973    985   1942     1  0.0000000  1.0460000  1
    974    973    985   1942     1  0.0000000  0.0000000  3
    974    973    985    986     1  0.0000000  0.6508444  3
    974    973    985    987     1  0.0000000  0.6508444  3
    975    973    985   1942     1  0.0000000  1.0460000  1
    975    973    985   1942     1  0.0000000  0.0000000  3
    975    973    985    986     1  0.0000000  0.6508444  3
    975    973    985    987     1  0.0000000  0.6508444  3
    976    964    960    989     1  0.0000000  0.6508444  3
    977    976    982   1928     1  0.0000000  1.0460000  1
    977    976    982   1928     1  0.0000000  0.0000000  3
    977    976    982    983     1  0.0000000  0.6508444  3
    977    976    982    984     1  0.0000000  0.6508444  3
    978    976    982   1928     1  0.0000000  1.0460000  1
    978    976    982   1928     1  0.0000000  0.0000000  3
    978    976    982    983     1  0.0000000  0.6508444  3
    978    976    982    984     1  0.0000000  0.6508444  3
    982   1928   1922   1923     1  0.0000000  1.6038667  3
    982   1928   1922   1924     1  0.0000000  1.6038667  3
    983    982   1928   1922     1  0.0000000  1.6038667  3
    984    982   1928   1922     1  0.0000000  1.6038667  3
    985   1942   1936   1937     1  0.0000000  1.6038667  3
    985   1942   1936   1938     1  0.0000000  1.6038667  3
    986    985   1942   1936     1  0.0000000  1.6038667  3
    987    985   1942   1936     1  0.0000000  1.6038667  3
    990    991   1003   1004     1  0.0000000  0.6508444  3
    990    991   1003   1005     1  0.0000000  0.6508444  3
    990    994   1006   1007     1  0.0000000  0.6508444  3
    990    994   1006   1008     1  0.0000000  0.6508444  3
    990    997   1000   1001     1  0.0000000  0.6508444  3
    990    997   1000   1002     1  0.0000000  0.6508444  3
    991    990    994    995     1  0.0000000  0.6508444  3
    991    990    994    996     1  0.0000000  0.6508444  3
    991    990    997    998     1  0.0000000  0.6508444  3
    991    990    997    999     1  0.0000000  0.6508444  3
    991   1003   1015   1016     1  0.0000000  0.6508444  3
    991   1003   1015   1017     1  0.0000000  0.6508444  3
    992    991    990    994     1  0.0000000  0.6508444  3
    992    991    990    997     1  0.0000000  0.6508444  3
    992    991    990   1019     1  0.0000000  0.6508444  3
    992    991   1003   1015     1  0.0000000  0.6508444  3
    992    991   1003   1004     1  0.0000000  0.6508444  3
    992    991   1003   1005     1  0.0000000  0.6508444  3
    993    991    990    994     1  0.0000000  0.6508444  3
    993    991    990    997     1  0.0000000  0.6508444  3
    993    991    990   1019     1  0.0000000  0.6508444  3
    993    991   1003   1015     1  0.0000000  0.6508444  3
    993    991   1003   1004     1  0.0000000  0.6508444  3
    993    991   1003   1005     1  0.0000000  0.6508444  3
    994    990    997    998     1  0.0000000  0.6508444  3
    994    990    997    999     1  0.0000000  0.6508444  3
    994   1006   1012   1013     1  0.0000000  0.6508444  3
    994   1006   1012   1014     1  0.0000000  0.6508444  3
    995    994    990    997     1  0.0000000  0.6508444  3
    995    994    990   1019     1  0.0000000  0.6508444  3
    995    994   1006   1012     1  0.0000000  0.6508444  3
    995    994   1006   1007     1  0.0000000  0.6508444  3
    995    994   1006   1008     1  0.0000000  0.6508444  3
    996    994    990    997     1  0.0000000  0.6508444  3
    996    994    990   1019     1  0.0000000  0.6508444  3
    996    994   1006   1012     1  0.0000000  0.6508444  3
    996    994   1006   1007     1  0.0000000  0.6508444  3
    996    994   1006   1008     1  0.0000000  0.6508444  3
    997   1000   1009   1010     1  0.0000000  0.6508444  3
    997   1000   1009   1011     1  0.0000000  0.6508444  3
    998    997    990   1019     1  0.0000000  0.6508444  3
    998    997   1000   1009     1  0.0000000  0.6508444  3
    998    997   1000   1001     1  0.0000000  0.6508444  3
    998    997   1000   1002     1  0.0000000  0.6508444  3
    999    997    990   1019     1  0.0000000  0.6508444  3
    999    997   1000   1009     1  0.0000000  0.6508444  3
    999    997   1000   1001     1  0.0000000  0.6508444  3
    999    997   1000   1002     1  0.0000000  0.6508444  3
   1000    997    990   1019     1  0.0000000  0.6508444  3
   1001   1000   1009   1018     1  0.0000000  1.0460000  1
   1001   1000   1009   1018     1  0.0000000  0.0000000  3
   1001   1000   1009   1010     1  0.0000000  0.6508444  3
   1001   1000   1009   1011     1  0.0000000  0.6508444  3
   1002   1000   1009   1018     1  0.0000000  1.0460000  1
   1002   1000   1009   1018     1  0.0000000  0.0000000  3
   1002   1000   1009   1010     1  0.0000000  0.6508444  3
   1002   1000   1009   1011     1  0.0000000  0.6508444  3
   1003    991    990   1019     1  0.0000000  0.6508444  3
   1004   1003   1015   1970     1  0.0000000  1.0460000  1
   1004   1003   1015   1970     1  0.0000000  0.0000000  3
   1004   1003   1015   1016     1  0.0000000  0.6508444  3
   1004   1003   1015   1017     1  0.0000000  0.6508444  3
   1005   1003   1015   1970     1  0.0000000  1.0460000  1
   1005   1003   1015   1970     1  0.0000000  0.0000000  3
   1005   1003   1015   1016     1  0.0000000  0.6508444  3
   1005   1003   1015   1017     1  0.0000000  0.6508444  3
   1006    994    990   1019     1  0.0000000  0.6508444  3
   1007   1006   1012   1956     1  0.0000000  1.0460000  1
   1007   1006   1012   1956     1  0.0000000  0.0000000  3
   1007   1006   1012   1013     1  0.0000000  0.6508444  3
   1007   1006   1012   1014     1  0.0000000  0.6508444  3
   1008   1006   1012   1956     1  0.0000000  1.0460000  1
   1008   1006   1012   1956     1  0.0000000  0.0000000  3
   1008   1006   1012   1013     1  0.0000000  0.6508444  3
   1008   1006   1012   1014     1  0.0000000  0.6508444  3
   1012   1956   1950   1951     1  0.0000000  1.6038667  3
   1012   1956   1950   1952     1  0.0000000  1.6038667  3
   1013   1012   1956   1950     1  0.0000000  1.6038667  3
   1014   1012   1956   1950     1  0.0000000  1.6038667  3
   1015   1970   1964   1965     1  0.0000000  1.6038667  3
   1015   1970   1964   1966     1  0.0000000  1.6038667  3
   1016   1015   1970   1964     1  0.0000000  1.6038667  3
   1017   1015   1970   1964     1  0.0000000  1.6038667  3
   1020   1021   1033   1034     1  0.0000000  0.6508444  3
   1020   1021   1033   1035     1  0.0000000  0.6508444  3
   1020   1024   1036   1037     1  0.0000000  0.6508444  3
   1020   1024   1036   1038     1  0.0000000  0.6508444  3
   1020   1027   1030   1031     1  0.0000000  0.6508444  3
   1020   1027   1030   1032     1  0.0000000  0.6508444  3
   1021   1020   1024   1025     1  0.0000000  0.6508444  3
   1021   1020   1024   1026     1  0.0000000  0.6508444  3
   1021   1020   1027   1028     1  0.0000000  0.6508444  3
   1021   1020   1027   1029     1  0.0000000  0.6508444  3
   1021   1033   1045   1046     1  0.0000000  0.6508444  3
   1021   1033   1045   1047     1  0.0000000  0.6508444  3
   1022   1021   1020   1024     1  0.0000000  0.6508444  3
   1022   1021   1020   1027     1  0.0000000  0.6508444  3
   1022   1021   1020   1049     1  0.0000000  0.6508444  3
   1022   1021   1033   1045     1  0.0000000  0.6508444  3
   1022   1021   1033   1034     1  0.0000000  0.6508444  3
   1022   1021   1033   1035     1  0.0000000  0.6508444  3
   1023   1021   1020   1024     1  0.0000000  0.6508444  3
   1023   1021   1020   1027     1  0.0000000  0.6508444  3
   1023   1021   1020   1049     1  0.0000000  0.6508444  3
   1023   1021   1033   1045     1  0.0000000  0.6508444  3
   1023   1021   1033   1034     1  0.0000000  0.6508444  3
   1023   1021   1033   1035     1  0.0000000  0.6508444  3
   1024   1020   1027   1028     1  0.0000000  0.6508444  3
   1024   1020   1027   1029     1  0.0000000  0.6508444  3
   1024   1036   1042   1043     1  0.0000000  0.6508444  3
   1024   1036   1042   1044     1  0.0000000  0.6508444  3
   1025   1024   1020   1027     1  0.0000000  0.6508444  3
   1025   1024   1020   1049     1  0.0000000  0.6508444  3
   1025   1024   1036   1042     1  0.0000000  0.6508444  3
   1025   1024   1036   1037     1  0.0000000  0.6508444  3
   1025   1024   1036   1038     1  0.0000000  0.6508444  3
   1026   1024   1020   1027     1  0.0000000  0.6508444  3
   1026   1024   1020   1049     1  0.0000000  0.6508444  3
   1026   1024   1036   1042     1  0.0000000  0.6508444  3
   1026   1024   1036   1037     1  0.0000000  0.6508444  3
   1026   1024   1036   1038     1  0.0000000  0.6508444  3
   1027   1030   1039   1040     1  0.0000000  0.6508444  3
   1027   1030   1039   1041     1  0.0000000  0.6508444  3
   1028   1027   1020   1049     1  0.0000000  0.6508444  3
   1028   1027   1030   1039     1  0.0000000  0.6508444  3
   1028   1027   1030   1031     1  0.0000000  0.6508444  3
   1028   1027   1030   1032     1  0.0000000  0.6508444  3
   1029   1027   1020   1049     1  0.0000000  0.6508444  3
   1029   1027   1030   1039     1  0.0000000  0.6508444  3
   1029   1027   1030   1031     1  0.0000000  0.6508444  3
   1029   1027   1030   1032     1  0.0000000  0.6508444  3
   1030   1027   1020   1049     1  0.0000000  0.6508444  3
   1031   1030   1039   1048     1  0.0000000  1.0460000  1
   1031   1030   1039   1048     1  0.0000000  0.0000000  3
   1031   1030   1039   1040     1  0.0000000  0.6508444  3
   1031   1030   1039   1041     1  0.0000000  0.6508444  3
   1032   1030   1039   1048     1  0.0000000  1.0460000  1
   1032   1030   1039   1048     1  0.0000000  0.0000000  3
   1032   1030   1039   1040     1  0.0000000  0.6508444  3
   1032   1030   1039   1041     1  0.0000000  0.6508444  3
   1033   1021   1020   1049     1  0.0000000  0.6508444  3
   1034   1033   1045   1998     1  0.0000000  1.0460000  1
   1034   1033   1045   1998     1  0.0000000  0.0000000  3
   1034   1033   1045   1046     1  0.0000000  0.6508444  3
   1034   1033   1045   1047     1  0.0000000  0.6508444  3
   1035   1033   1045   1998     1  0.0000000  1.0460000  1
   1035   1033   1045   1998     1  0.0000000  0.0000000  3
   1035   1033   1045   1046     1  0.0000000  0.6508444  3
   1035   1033   1045   1047     1  0.0000000  0.6508444  3
   1036   1024   1020   1049     1  0.0000000  0.6508444  3
   1037   1036   1042   1984     1  0.0000000  1.0460000  1
   1037   1036   1042   1984     1  0.0000000  0.0000000  3
   1037   1036   1042   1043     1  0.0000000  0.6508444  3
   1037   1036   1042   1044     1  0.0000000  0.6508444  3
   1038   1036   1042   1984     1  0.0000000  1.0460000  1
   1038   1036   1042   1984     1  0.0000000  0.0000000  3
   1038   1036   1042   1043     1  0.0000000  0.6508444  3
   1038   1036   1042   1044     1  0.0000000  0.6508444  3
   1042   1984   1978   1979     1  0.0000000  1.6038667  3
   1042   1984   1978   1980     1  0.0000000  1.6038667  3
   1043   1042   1984   1978     1  0.0000000  1.6038667  3
   1044   1042   1984   1978     1  0.0000000  1.6038667  3
   1045   1998   1992   1993     1  0.0000000  1.6038667  3
   1045   1998   1992   1994     1  0.0000000  1.6038667  3
   1046   1045   1998   1992     1  0.0000000  1.6038667  3
   1047   1045   1998   1992     1  0.0000000  1.6038667  3
   1050   1051   1063   1064     1  0.0000000  0.6508444  3
   1050   1051   1063   1065     1  0.0000000  0.6508444  3
   1050   1054   1066   1067     1  0.0000000  0.6508444  3
   1050   1054   1066   1068     1  0.0000000  0.6508444  3
   1050   1057   1060   1061     1  0.0000000  0.6508444  3
   1050   1057   1060   1062     1  0.0000000  0.6508444  3
   1051   1050   1054   1055     1  0.0000000  0.6508444  3
   1051   1050   1054   1056     1  0.0000000  0.6508444  3
   1051   1050   1057   1058     1  0.0000000  0.6508444  3
   1051   1050   1057   1059     1  0.0000000  0.6508444  3
   1051   1063   1075   1076     1  0.0000000  0.6508444  3
   1051   1063   1075   1077     1  0.0000000  0.6508444  3
   1052   1051   1050   1054     1  0.0000000  0.6508444  3
   1052   1051   1050   1057     1  0.0000000  0.6508444  3
   1052   1051   1050   1079     1  0.0000000  0.6508444  3
   1052   1051   1063   1075     1  0.0000000  0.6508444  3
   1052   1051   1063   1064     1  0.0000000  0.6508444  3
   1052   1051   1063   1065     1  0.0000000  0.6508444  3
   1053   1051   1050   1054     1  0.0000000  0.6508444  3
   1053   1051   1050   1057     1  0.0000000  0.6508444  3
   1053   1051   1050   1079     1  0.0000000  0.6508444  3
   1053   1051   1063   1075     1  0.0000000  0.6508444  3
   1053   1051   1063   1064     1  0.0000000  0.6508444  3
   1053   1051   1063   1065     1  0.0000000  0.6508444  3
   1054   1050   1057   1058     1  0.0000000  0.6508444  3
   1054   1050   1057   1059     1  0.0000000  0.6508444  3
   1054   1066   1072   1073     1  0.0000000  0.6508444  3
   1054   1066   1072   1074     1  0.0000000  0.6508444  3
   1055   1054   1050   1057     1  0.0000000  0.6508444  3
   1055   1054   1050   1079     1  0.0000000  0.6508444  3
   1055   1054   1066   1072     1  0.0000000  0.6508444  3
   1055   1054   1066   1067     1  0.0000000  0.6508444  3
   1055   1054   1066   1068     1  0.0000000  0.6508444  3
   1056   1054   1050   1057     1  0.0000000  0.6508444  3
   1056   1054   1050   1079     1  0.0000000  0.6508444  3
   1056   1054   1066   1072     1  0.0000000  0.6508444  3
   1056   1054   1066   1067     1  0.0000000  0.6508444  3
   1056   1054   1066   1068     1  0.0000000  0.6508444  3
   1057   1060   1069   1070     1  0.0000000  0.6508444  3
   1057   1060   1069   1071     1  0.0000000  0.6508444  3
   1058   1057   1050   1079     1  0.0000000  0.6508444  3
   1058   1057   1060   1069     1  0.0000000  0.6508444  3
   1058   1057   1060   1061     1  0.0000000  0.6508444  3
   1058   1057   1060   1062     1  0.0000000  0.6508444  3
   1059   1057   1050   1079     1  0.0000000  0.6508444  3
   1059   1057   1060   1069     1  0.0000000  0.6508444  3
   1059   1057   1060   1061     1  0.0000000  0.6508444  3
   1059   1057   1060   1062     1  0.0000000  0.6508444  3
   1060   1057   1050   1079     1  0.0000000  0.6508444  3
   1061   1060   1069   1078     1  0.0000000  1.0460000  1
   1061   1060   1069   1078     1  0.0000000  0.0000000  3
   1061   1060   1069   1070     1  0.0000000  0.6508444  3
   1061   1060   1069   1071     1  0.0000000  0.6508444  3
   1062   1060   1069   1078     1  0.0000000  1.0460000  1
   1062   1060   1069   1078     1  0.0000000  0.0000000  3
   1062   1060   1069   1070     1  0.0000000  0.6508444  3
   1062   1060   1069   1071     1  0.0000000  0.6508444  3
   1063   1051   1050   1079     1  0.0000000  0.6508444  3
   1064   1063   1075   2026     1  0.0000000  1.0460000  1
   1064   1063   1075   2026     1  0.0000000  0.0000000  3
   1064   1063   1075   1076     1  0.0000000  0.6508444  3
   1064   1063   1075   1077     1  0.0000000  0.6508444  3
   1065   1063   1075   2026     1  0.0000000  1.0460000  1
   1065   1063   1075   2026     1  0.0000000  0.0000000  3
   1065   1063   1075   1076     1  0.0000000  0.6508444  3
   1065   1063   1075   1077     1  0.0000000  0.6508444  3
   1066   1054   1050   1079     1  0.0000000  0.6508444  3
   1067   1066   1072   2012     1  0.0000000  1.0460000  1
   1067   1066   1072   2012     1  0.0000000  0.0000000  3
   1067   1066   1072   1073     1  0.0000000  0.6508444  3
   1067   1066   1072   1074     1  0.0000000  0.6508444  3
   1068   1066   1072   2012     1  0.0000000  1.0460000  1
   1068   1066   1072   2012     1  0.0000000  0.0000000  3
   1068   1066   1072   1073     1  0.0000000  0.6508444  3
   1068   1066   1072   1074     1  0.0000000  0.6508444  3
   1072   2012   2006   2007     1  0.0000000  1.6038667  3
   1072   2012   2006   2008     1  0.0000000  1.6038667  3
   1073   1072   2012   2006     1  0.0000000  1.6038667  3
   1074   1072   2012   2006     1  0.0000000  1.6038667  3
   1075   2026   2020   2021     1  0.0000000  1.6038667  3
   1075   2026   2020   2022     1  0.0000000  1.6038667  3
   1076   1075   2026   2020     1  0.0000000  1.6038667  3
   1077   1075   2026   2020     1  0.0000000  1.6038667  3
   1080   1081   1093   1094     1  0.0000000  0.6508444  3
   1080   1081   1093   1095     1  0.0000000  0.6508444  3
   1080   1084   1096   1097     1  0.0000000  0.6508444  3
   1080   1084   1096   1098     1  0.0000000  0.6508444  3
   1080   1087   1090   1091     1  0.0000000  0.6508444  3
   1080   1087   1090   1092     1  0.0000000  0.6508444  3
   1081   1080   1084   1085     1  0.0000000  0.6508444  3
   1081   1080   1084   1086     1  0.0000000  0.6508444  3
   1081   1080   1087   1088     1  0.0000000  0.6508444  3
   1081   1080   1087   1089     1  0.0000000  0.6508444  3
   1081   1093   1105   1106     1  0.0000000  0.6508444  3
   1081   1093   1105   1107     1  0.0000000  0.6508444  3
   1082   1081   1080   1084     1  0.0000000  0.6508444  3
   1082   1081   1080   1087     1  0.0000000  0.6508444  3
   1082   1081   1080   1109     1  0.0000000  0.6508444  3
   1082   1081   1093   1105     1  0.0000000  0.6508444  3
   1082   1081   1093   1094     1  0.0000000  0.6508444  3
   1082   1081   1093   1095     1  0.0000000  0.6508444  3
   1083   1081   1080   1084     1  0.0000000  0.6508444  3
   1083   1081   1080   1087     1  0.0000000  0.6508444  3
   1083   1081   1080   1109     1  0.0000000  0.6508444  3
   1083   1081   1093   1105     1  0.0000000  0.6508444  3
   1083   1081   1093   1094     1  0.0000000  0.6508444  3
   1083   1081   1093   1095     1  0.0000000  0.6508444  3
   1084   1080   1087   1088     1  0.0000000  0.6508444  3
   1084   1080   1087   1089     1  0.0000000  0.6508444  3
   1084   1096   1102   1103     1  0.0000000  0.6508444  3
   1084   1096   1102   1104     1  0.0000000  0.6508444  3
   1085   1084   1080   1087     1  0.0000000  0.6508444  3
   1085   1084   1080   1109     1  0.0000000  0.6508444  3
   1085   1084   1096   1102     1  0.0000000  0.6508444  3
   1085   1084   1096   1097     1  0.0000000  0.6508444  3
   1085   1084   1096   1098     1  0.0000000  0.6508444  3
   1086   1084   1080   1087     1  0.0000000  0.6508444  3
   1086   1084   1080   1109     1  0.0000000  0.6508444  3
   1086   1084   1096   1102     1  0.0000000  0.6508444  3
   1086   1084   1096   1097     1  0.0000000  0.6508444  3
   1086   1084   1096   1098     1  0.0000000  0.6508444  3
   1087   1090   1099   1100     1  0.0000000  0.6508444  3
   1087   1090   1099   1101     1  0.0000000  0.6508444  3
   1088   1087   1080   1109     1  0.0000000  0.6508444  3
   1088   1087   1090   1099     1  0.0000000  0.6508444  3
   1088   1087   1090   1091     1  0.0000000  0.6508444  3
   1088   1087   1090   1092     1  0.0000000  0.6508444  3
   1089   1087   1080   1109     1  0.0000000  0.6508444  3
   1089   1087   1090   1099     1  0.0000000  0.6508444  3
   1089   1087   1090   1091     1  0.0000000  0.6508444  3
   1089   1087   1090   1092     1  0.0000000  0.6508444  3
   1090   1087   1080   1109     1  0.0000000  0.6508444  3
   1091   1090   1099   1108     1  0.0000000  1.0460000  1
   1091   1090   1099   1108     1  0.0000000  0.0000000  3
   1091   1090   1099   1100     1  0.0000000  0.6508444  3
   1091   1090   1099   1101     1  0.0000000  0.6508444  3
   1092   1090   1099   1108     1  0.0000000  1.0460000  1
   1092   1090   1099   1108     1  0.0000000  0.0000000  3
   1092   1090   1099   1100     1  0.0000000  0.6508444  3
   1092   1090   1099   1101     1  0.0000000  0.6508444  3
   1093   1081   1080   1109     1  0.0000000  0.6508444  3
   1094   1093   1105   2054     1  0.0000000  1.0460000  1
   1094   1093   1105   2054     1  0.0000000  0.0000000  3
   1094   1093   1105   1106     1  0.0000000  0.6508444  3
   1094   1093   1105   1107     1  0.0000000  0.6508444  3
   1095   1093   1105   2054     1  0.0000000  1.0460000  1
   1095   1093   1105   2054     1  0.0000000  0.0000000  3
   1095   1093   1105   1106     1  0.0000000  0.6508444  3
   1095   1093   1105   1107     1  0.0000000  0.6508444  3
   1096   1084   1080   1109     1  0.0000000  0.6508444  3
   1097   1096   1102   2040     1  0.0000000  1.0460000  1
   1097   1096   1102   2040     1  0.0000000  0.0000000  3
   1097   1096   1102   1103     1  0.0000000  0.6508444  3
   1097   1096   1102   1104     1  0.0000000  0.6508444  3
   1098   1096   1102   2040     1  0.0000000  1.0460000  1
   1098   1096   1102   2040     1  0.0000000  0.0000000  3
   1098   1096   1102   1103     1  0.0000000  0.6508444  3
   1098   1096   1102   1104     1  0.0000000  0.6508444  3
   1102   2040   2034   2035     1  0.0000000  1.6038667  3
   1102   2040   2034   2036     1  0.0000000  1.6038667  3
   1103   1102   2040   2034     1  0.0000000  1.6038667  3
   1104   1102   2040   2034     1  0.0000000  1.6038667  3
   1105   2054   2048   2049     1  0.0000000  1.6038667  3
   1105   2054   2048   2050     1  0.0000000  1.6038667  3
   1106   1105   2054   2048     1  0.0000000  1.6038667  3
   1107   1105   2054   2048     1  0.0000000  1.6038667  3
   1110   1111   1123   1124     1  0.0000000  0.6508444  3
   1110   1111   1123   1125     1  0.0000000  0.6508444  3
   1110   1114   1126   1127     1  0.0000000  0.6508444  3
   1110   1114   1126   1128     1  0.0000000  0.6508444  3
   1110   1117   1120   1121     1  0.0000000  0.6508444  3
   1110   1117   1120   1122     1  0.0000000  0.6508444  3
   1111   1110   1114   1115     1  0.0000000  0.6508444  3
   1111   1110   1114   1116     1  0.0000000  0.6508444  3
   1111   1110   1117   1118     1  0.0000000  0.6508444  3
   1111   1110   1117   1119     1  0.0000000  0.6508444  3
   1111   1123   1135   1136     1  0.0000000  0.6508444  3
   1111   1123   1135   1137     1  0.0000000  0.6508444  3
   1112   1111   1110   1114     1  0.0000000  0.6508444  3
   1112   1111   1110   1117     1  0.0000000  0.6508444  3
   1112   1111   1110   1139     1  0.0000000  0.6508444  3
   1112   1111   1123   1135     1  0.0000000  0.6508444  3
   1112   1111   1123   1124     1  0.0000000  0.6508444  3
   1112   1111   1123   1125     1  0.0000000  0.6508444  3
   1113   1111   1110   1114     1  0.0000000  0.6508444  3
   1113   1111   1110   1117     1  0.0000000  0.6508444  3
   1113   1111   1110   1139     1  0.0000000  0.6508444  3
   1113   1111   1123   1135     1  0.0000000  0.6508444  3
   1113   1111   1123   1124     1  0.0000000  0.6508444  3
   1113   1111   1123   1125     1  0.0000000  0.6508444  3
   1114   1110   1117   1118     1  0.0000000  0.6508444  3
   1114   1110   1117   1119     1  0.0000000  0.6508444  3
   1114   1126   1132   1133     1  0.0000000  0.6508444  3
   1114   1126   1132   1134     1  0.0000000  0.6508444  3
   1115   1114   1110   1117     1  0.0000000  0.6508444  3
   1115   1114   1110   1139     1  0.0000000  0.6508444  3
   1115   1114   1126   1132     1  0.0000000  0.6508444  3
   1115   1114   1126   1127     1  0.0000000  0.6508444  3
   1115   1114   1126   1128     1  0.0000000  0.6508444  3
   1116   1114   1110   1117     1  0.0000000  0.6508444  3
   1116   1114   1110   1139     1  0.0000000  0.6508444  3
   1116   1114   1126   1132     1  0.0000000  0.6508444  3
   1116   1114   1126   1127     1  0.0000000  0.6508444  3
   1116   1114   1126   1128     1  0.0000000  0.6508444  3
   1117   1120   1129   1130     1  0.0000000  0.6508444  3
   1117   1120   1129   1131     1  0.0000000  0.6508444  3
   1118   1117   1110   1139     1  0.0000000  0.6508444  3
   1118   1117   1120   1129     1  0.0000000  0.6508444  3
   1118   1117   1120   1121     1  0.0000000  0.6508444  3
   1118   1117   1120   1122     1  0.0000000  0.6508444  3
   1119   1117   1110   1139     1  0.0000000  0.6508444  3
   1119   1117   1120   1129     1  0.0000000  0.6508444  3
   1119   1117   1120   1121     1  0.0000000  0.6508444  3
   1119   1117   1120   1122     1  0.0000000  0.6508444  3
   1120   1117   1110   1139     1  0.0000000  0.6508444  3
   1121   1120   1129   1138     1  0.0000000  1.0460000  1
   1121   1120   1129   1138     1  0.0000000  0.0000000  3
   1121   1120   1129   1130     1  0.0000000  0.6508444  3
   1121   1120   1129   1131     1  0.0000000  0.6508444  3
   1122   1120   1129   1138     1  0.0000000  1.0460000  1
   1122   1120   1129   1138     1  0.0000000  0.0000000  3
   1122   1120   1129   1130     1  0.0000000  0.6508444  3
   1122   1120   1129   1131     1  0.0000000  0.6508444  3
   1123   1111   1110   1139     1  0.0000000  0.6508444  3
   1124   1123   1135   2082     1  0.0000000  1.0460000  1
   1124   1123   1135   2082     1  0.0000000  0.0000000  3
   1124   1123   1135   1136     1  0.0000000  0.6508444  3
   1124   1123   1135   1137     1  0.0000000  0.6508444  3
   1125   1123   1135   2082     1  0.0000000  1.0460000  1
   1125   1123   1135   2082     1  0.0000000  0.0000000  3
   1125   1123   1135   1136     1  0.0000000  0.6508444  3
   1125   1123   1135   1137     1  0.0000000  0.6508444  3
   1126   1114   1110   1139     1  0.0000000  0.6508444  3
   1127   1126   1132   2068     1  0.0000000  1.0460000  1
   1127   1126   1132   2068     1  0.0000000  0.0000000  3
   1127   1126   1132   1133     1  0.0000000  0.6508444  3
   1127   1126   1132   1134     1  0.0000000  0.6508444  3
   1128   1126   1132   2068     1  0.0000000  1.0460000  1
   1128   1126   1132   2068     1  0.0000000  0.0000000  3
   1128   1126   1132   1133     1  0.0000000  0.6508444  3
   1128   1126   1132   1134     1  0.0000000  0.6508444  3
   1132   2068   2062   2063     1  0.0000000  1.6038667  3
   1132   2068   2062   2064     1  0.0000000  1.6038667  3
   1133   1132   2068   2062     1  0.0000000  1.6038667  3
   1134   1132   2068   2062     1  0.0000000  1.6038667  3
   1135   2082   2076   2077     1  0.0000000  1.6038667  3
   1135   2082   2076   2078     1  0.0000000  1.6038667  3
   1136   1135   2082   2076     1  0.0000000  1.6038667  3
   1137   1135   2082   2076     1  0.0000000  1.6038667  3
   1140   1141   1153   1154     1  0.0000000  0.6508444  3
   1140   1141   1153   1155     1  0.0000000  0.6508444  3
   1140   1144   1156   1157     1  0.0000000  0.6508444  3
   1140   1144   1156   1158     1  0.0000000  0.6508444  3
   1140   1147   1150   1151     1  0.0000000  0.6508444  3
   1140   1147   1150   1152     1  0.0000000  0.6508444  3
   1141   1140   1144   1145     1  0.0000000  0.6508444  3
   1141   1140   1144   1146     1  0.0000000  0.6508444  3
   1141   1140   1147   1148     1  0.0000000  0.6508444  3
   1141   1140   1147   1149     1  0.0000000  0.6508444  3
   1141   1153   1165   1166     1  0.0000000  0.6508444  3
   1141   1153   1165   1167     1  0.0000000  0.6508444  3
   1142   1141   1140   1144     1  0.0000000  0.6508444  3
   1142   1141   1140   1147     1  0.0000000  0.6508444  3
   1142   1141   1140   1169     1  0.0000000  0.6508444  3
   1142   1141   1153   1165     1  0.0000000  0.6508444  3
   1142   1141   1153   1154     1  0.0000000  0.6508444  3
   1142   1141   1153   1155     1  0.0000000  0.6508444  3
   1143   1141   1140   1144     1  0.0000000  0.6508444  3
   1143   1141   1140   1147     1  0.0000000  0.6508444  3
   1143   1141   1140   1169     1  0.0000000  0.6508444  3
   1143   1141   1153   1165     1  0.0000000  0.6508444  3
   1143   1141   1153   1154     1  0.0000000  0.6508444  3
   1143   1141   1153   1155     1  0.0000000  0.6508444  3
   1144   1140   1147   1148     1  0.0000000  0.6508444  3
   1144   1140   1147   1149     1  0.0000000  0.6508444  3
   1144   1156   1162   1163     1  0.0000000  0.6508444  3
   1144   1156   1162   1164     1  0.0000000  0.6508444  3
   1145   1144   1140   1147     1  0.0000000  0.6508444  3
   1145   1144   1140   1169     1  0.0000000  0.6508444  3
   1145   1144   1156   1162     1  0.0000000  0.6508444  3
   1145   1144   1156   1157     1  0.0000000  0.6508444  3
   1145   1144   1156   1158     1  0.0000000  0.6508444  3
   1146   1144   1140   1147     1  0.0000000  0.6508444  3
   1146   1144   1140   1169     1  0.0000000  0.6508444  3
   1146   1144   1156   1162     1  0.0000000  0.6508444  3
   1146   1144   1156   1157     1  0.0000000  0.6508444  3
   1146   1144   1156   1158     1  0.0000000  0.6508444  3
   1147   1150   1159   1160     1  0.0000000  0.6508444  3
   1147   1150   1159   1161     1  0.0000000  0.6508444  3
   1148   1147   1140   1169     1  0.0000000  0.6508444  3
   1148   1147   1150   1159     1  0.0000000  0.6508444  3
   1148   1147   1150   1151     1  0.0000000  0.6508444  3
   1148   1147   1150   1152     1  0.0000000  0.6508444  3
   1149   1147   1140   1169     1  0.0000000  0.6508444  3
   1149   1147   1150   1159     1  0.0000000  0.6508444  3
   1149   1147   1150   1151     1  0.0000000  0.6508444  3
   1149   1147   1150   1152     1  0.0000000  0.6508444  3
   1150   1147   1140   1169     1  0.0000000  0.6508444  3
   1151   1150   1159   1168     1  0.0000000  1.0460000  1
   1151   1150   1159   1168     1  0.0000000  0.0000000  3
   1151   1150   1159   1160     1  0.0000000  0.6508444  3
   1151   1150   1159   1161     1  0.0000000  0.6508444  3
   1152   1150   1159   1168     1  0.0000000  1.0460000  1
   1152   1150   1159   1168     1  0.0000000  0.0000000  3
   1152   1150   1159   1160     1  0.0000000  0.6508444  3
   1152   1150   1159   1161     1  0.0000000  0.6508444  3
   1153   1141   1140   1169     1  0.0000000  0.6508444  3
   1154   1153   1165   2110     1  0.0000000  1.0460000  1
   1154   1153   1165   2110     1  0.0000000  0.0000000  3
   1154   1153   1165   1166     1  0.0000000  0.6508444  3
   1154   1153   1165   1167     1  0.0000000  0.6508444  3
   1155   1153   1165   2110     1  0.0000000  1.0460000  1
   1155   1153   1165   2110     1  0.0000000  0.0000000  3
   1155   1153   1165   1166     1  0.0000000  0.6508444  3
   1155   1153   1165   1167     1  0.0000000  0.6508444  3
   1156   1144   1140   1169     1  0.0000000  0.6508444  3
   1157   1156   1162   2096     1  0.0000000  1.0460000  1
   1157   1156   1162   2096     1  0.0000000  0.0000000  3
   1157   1156   1162   1163     1  0.0000000  0.6508444  3
   1157   1156   1162   1164     1  0.0000000  0.6508444  3
   1158   1156   1162   2096     1  0.0000000  1.0460000  1
   1158   1156   1162   2096     1  0.0000000  0.0000000  3
   1158   1156   1162   1163     1  0.0000000  0.6508444  3
   1158   1156   1162   1164     1  0.0000000  0.6508444  3
   1162   2096   2090   2091     1  0.0000000  1.6038667  3
   1162   2096   2090   2092     1  0.0000000  1.6038667  3
   1163   1162   2096   2090     1  0.0000000  1.6038667  3
   1164   1162   2096   2090     1  0.0000000  1.6038667  3
   1165   2110   2104   2105     1  0.0000000  1.6038667  3
   1165   2110   2104   2106     1  0.0000000  1.6038667  3
   1166   1165   2110   2104     1  0.0000000  1.6038667  3
   1167   1165   2110   2104     1  0.0000000  1.6038667  3
   1170   1171   1183   1184     1  0.0000000  0.6508444  3
   1170   1171   1183   1185     1  0.0000000  0.6508444  3
   1170   1174   1186   1187     1  0.0000000  0.6508444  3
   1170   1174   1186   1188     1  0.0000000  0.6508444  3
   1170   1177   1180   1181     1  0.0000000  0.6508444  3
   1170   1177   1180   1182     1  0.0000000  0.6508444  3
   1171   1170   1174   1175     1  0.0000000  0.6508444  3
   1171   1170   1174   1176     1  0.0000000  0.6508444  3
   1171   1170   1177   1178     1  0.0000000  0.6508444  3
   1171   1170   1177   1179     1  0.0000000  0.6508444  3
   1171   1183   1195   1196     1  0.0000000  0.6508444  3
   1171   1183   1195   1197     1  0.0000000  0.6508444  3
   1172   1171   1170   1174     1  0.0000000  0.6508444  3
   1172   1171   1170   1177     1  0.0000000  0.6508444  3
   1172   1171   1170   1199     1  0.0000000  0.6508444  3
   1172   1171   1183   1195     1  0.0000000  0.6508444  3
   1172   1171   1183   1184     1  0.0000000  0.6508444  3
   1172   1171   1183   1185     1  0.0000000  0.6508444  3
   1173   1171   1170   1174     1  0.0000000  0.6508444  3
   1173   1171   1170   1177     1  0.0000000  0.6508444  3
   1173   1171   1170   1199     1  0.0000000  0.6508444  3
   1173   1171   1183   1195     1  0.0000000  0.6508444  3
   1173   1171   1183   1184     1  0.0000000  0.6508444  3
   1173   1171   1183   1185     1  0.0000000  0.6508444  3
   1174   1170   1177   1178     1  0.0000000  0.6508444  3
   1174   1170   1177   1179     1  0.0000000  0.6508444  3
   1174   1186   1192   1193     1  0.0000000  0.6508444  3
   1174   1186   1192   1194     1  0.0000000  0.6508444  3
   1175   1174   1170   1177     1  0.0000000  0.6508444  3
   1175   1174   1170   1199     1  0.0000000  0.6508444  3
   1175   1174   1186   1192     1  0.0000000  0.6508444  3
   1175   1174   1186   1187     1  0.0000000  0.6508444  3
   1175   1174   1186   1188     1  0.0000000  0.6508444  3
   1176   1174   1170   1177     1  0.0000000  0.6508444  3
   1176   1174   1170   1199     1  0.0000000  0.6508444  3
   1176   1174   1186   1192     1  0.0000000  0.6508444  3
   1176   1174   1186   1187     1  0.0000000  0.6508444  3
   1176   1174   1186   1188     1  0.0000000  0.6508444  3
   1177   1180   1189   1190     1  0.0000000  0.6508444  3
   1177   1180   1189   1191     1  0.0000000  0.6508444  3
   1178   1177   1170   1199     1  0.0000000  0.6508444  3
   1178   1177   1180   1189     1  0.0000000  0.6508444  3
   1178   1177   1180   1181     1  0.0000000  0.6508444  3
   1178   1177   1180   1182     1  0.0000000  0.6508444  3
   1179   1177   1170   1199     1  0.0000000  0.6508444  3
   1179   1177   1180   1189     1  0.0000000  0.6508444  3
   1179   1177   1180   1181     1  0.0000000  0.6508444  3
   1179   1177   1180   1182     1  0.0000000  0.6508444  3
   1180   1177   1170   1199     1  0.0000000  0.6508444  3
   1181   1180   1189   1198     1  0.0000000  1.0460000  1
   1181   1180   1189   1198     1  0.0000000  0.0000000  3
   1181   1180   1189   1190     1  0.0000000  0.6508444  3
   1181   1180   1189   1191     1  0.0000000  0.6508444  3
   1182   1180   1189   1198     1  0.0000000  1.0460000  1
   1182   1180   1189   1198     1  0.0000000  0.0000000  3
   1182   1180   1189   1190     1  0.0000000  0.6508444  3
   1182   1180   1189   1191     1  0.0000000  0.6508444  3
   1183   1171   1170   1199     1  0.0000000  0.6508444  3
   1184   1183   1195   2138     1  0.0000000  1.0460000  1
   1184   1183   1195   2138     1  0.0000000  0.0000000  3
   1184   1183   1195   1196     1  0.0000000  0.6508444  3
   1184   1183   1195   1197     1  0.0000000  0.6508444  3
   1185   1183   1195   2138     1  0.0000000  1.0460000  1
   1185   1183   1195   2138     1  0.0000000  0.0000000  3
   1185   1183   1195   1196     1  0.0000000  0.6508444  3
   1185   1183   1195   1197     1  0.0000000  0.6508444  3
   1186   1174   1170   1199     1  0.0000000  0.6508444  3
   1187   1186   1192   2124     1  0.0000000  1.0460000  1
   1187   1186   1192   2124     1  0.0000000  0.0000000  3
   1187   1186   1192   1193     1  0.0000000  0.6508444  3
   1187   1186   1192   1194     1  0.0000000  0.6508444  3
   1188   1186   1192   2124     1  0.0000000  1.0460000  1
   1188   1186   1192   2124     1  0.0000000  0.0000000  3
   1188   1186   1192   1193     1  0.0000000  0.6508444  3
   1188   1186   1192   1194     1  0.0000000  0.6508444  3
   1192   2124   2118   2119     1  0.0000000  1.6038667  3
   1192   2124   2118   2120     1  0.0000000  1.6038667  3
   1193   1192   2124   2118     1  0.0000000  1.6038667  3
   1194   1192   2124   2118     1  0.0000000  1.6038667  3
   1195   2138   2132   2133     1  0.0000000  1.6038667  3
   1195   2138   2132   2134     1  0.0000000  1.6038667  3
   1196   1195   2138   2132     1  0.0000000  1.6038667  3
   1197   1195   2138   2132     1  0.0000000  1.6038667  3
   1200   1201   1213   1214     1  0.0000000  0.6508444  3
   1200   1201   1213   1215     1  0.0000000  0.6508444  3
   1200   1204   1216   1217     1  0.0000000  0.6508444  3
   1200   1204   1216   1218     1  0.0000000  0.6508444  3
   1200   1207   1210   1211     1  0.0000000  0.6508444  3
   1200   1207   1210   1212     1  0.0000000  0.6508444  3
   1201   1200   1204   1205     1  0.0000000  0.6508444  3
   1201   1200   1204   1206     1  0.0000000  0.6508444  3
   1201   1200   1207   1208     1  0.0000000  0.6508444  3
   1201   1200   1207   1209     1  0.0000000  0.6508444  3
   1201   1213   1225   1226     1  0.0000000  0.6508444  3
   1201   1213   1225   1227     1  0.0000000  0.6508444  3
   1202   1201   1200   1204     1  0.0000000  0.6508444  3
   1202   1201   1200   1207     1  0.0000000  0.6508444  3
   1202   1201   1200   1229     1  0.0000000  0.6508444  3
   1202   1201   1213   1225     1  0.0000000  0.6508444  3
   1202   1201   1213   1214     1  0.0000000  0.6508444  3
   1202   1201   1213   1215     1  0.0000000  0.6508444  3
   1203   1201   1200   1204     1  0.0000000  0.6508444  3
   1203   1201   1200   1207     1  0.0000000  0.6508444  3
   1203   1201   1200   1229     1  0.0000000  0.6508444  3
   1203   1201   1213   1225     1  0.0000000  0.6508444  3
   1203   1201   1213   1214     1  0.0000000  0.6508444  3
   1203   1201   1213   1215     1  0.0000000  0.6508444  3
   1204   1200   1207   1208     1  0.0000000  0.6508444  3
   1204   1200   1207   1209     1  0.0000000  0.6508444  3
   1204   1216   1222   1223     1  0.0000000  0.6508444  3
   1204   1216   1222   1224     1  0.0000000  0.6508444  3
   1205   1204   1200   1207     1  0.0000000  0.6508444  3
   1205   1204   1200   1229     1  0.0000000  0.6508444  3
   1205   1204   1216   1222     1  0.0000000  0.6508444  3
   1205   1204   1216   1217     1  0.0000000  0.6508444  3
   1205   1204   1216   1218     1  0.0000000  0.6508444  3
   1206   1204   1200   1207     1  0.0000000  0.6508444  3
   1206   1204   1200   1229     1  0.0000000  0.6508444  3
   1206   1204   1216   1222     1  0.0000000  0.6508444  3
   1206   1204   1216   1217     1  0.0000000  0.6508444  3
   1206   1204   1216   1218     1  0.0000000  0.6508444  3
   1207   1210   1219   1220     1  0.0000000  0.6508444  3
   1207   1210   1219   1221     1  0.0000000  0.6508444  3
   1208   1207   1200   1229     1  0.0000000  0.6508444  3
   1208   1207   1210   1219     1  0.0000000  0.6508444  3
   1208   1207   1210   1211     1  0.0000000  0.6508444  3
   1208   1207   1210   1212     1  0.0000000  0.6508444  3
   1209   1207   1200   1229     1  0.0000000  0.6508444  3
   1209   1207   1210   1219     1  0.0000000  0.6508444  3
   1209   1207   1210   1211     1  0.0000000  0.6508444  3
   1209   1207   1210   1212     1  0.0000000  0.6508444  3
   1210   1207   1200   1229     1  0.0000000  0.6508444  3
   1211   1210   1219   1228     1  0.0000000  1.0460000  1
   1211   1210   1219   1228     1  0.0000000  0.0000000  3
   1211   1210   1219   1220     1  0.0000000  0.6508444  3
   1211   1210   1219   1221     1  0.0000000  0.6508444  3
   1212   1210   1219   1228     1  0.0000000  1.0460000  1
   1212   1210   1219   1228     1  0.0000000  0.0000000  3
   1212   1210   1219   1220     1  0.0000000  0.6508444  3
   1212   1210   1219   1221     1  0.0000000  0.6508444  3
   1213   1201   1200   1229     1  0.0000000  0.6508444  3
   1214   1213   1225   2166     1  0.0000000  1.0460000  1
   1214   1213   1225   2166     1  0.0000000  0.0000000  3
   1214   1213   1225   1226     1  0.0000000  0.6508444  3
   1214   1213   1225   1227     1  0.0000000  0.6508444  3
   1215   1213   1225   2166     1  0.0000000  1.0460000  1
   1215   1213   1225   2166     1  0.0000000  0.0000000  3
   1215   1213   1225   1226     1  0.0000000  0.6508444  3
   1215   1213   1225   1227     1  0.0000000  0.6508444  3
   1216   1204   1200   1229     1  0.0000000  0.6508444  3
   1217   1216   1222   2152     1  0.0000000  1.0460000  1
   1217   1216   1222   2152     1  0.0000000  0.0000000  3
   1217   1216   1222   1223     1  0.0000000  0.6508444  3
   1217   1216   1222   1224     1  0.0000000  0.6508444  3
   1218   1216   1222   2152     1  0.0000000  1.0460000  1
   1218   1216   1222   2152     1  0.0000000  0.0000000  3
   1218   1216   1222   1223     1  0.0000000  0.6508444  3
   1218   1216   1222   1224     1  0.0000000  0.6508444  3
   1222   2152   2146   2147     1  0.0000000  1.6038667  3
   1222   2152   2146   2148     1  0.0000000  1.6038667  3
   1223   1222   2152   2146     1  0.0000000  1.6038667  3
   1224   1222   2152   2146     1  0.0000000  1.6038667  3
   1225   2166   2160   2161     1  0.0000000  1.6038667  3
   1225   2166   2160   2162     1  0.0000000  1.6038667  3
   1226   1225   2166   2160     1  0.0000000  1.6038667  3
   1227   1225   2166   2160     1  0.0000000  1.6038667  3
   1230   1231   1243   1244     1  0.0000000  0.6508444  3
   1230   1231   1243   1245     1  0.0000000  0.6508444  3
   1230   1234   1246   1247     1  0.0000000  0.6508444  3
   1230   1234   1246   1248     1  0.0000000  0.6508444  3
   1230   1237   1240   1241     1  0.0000000  0.6508444  3
   1230   1237   1240   1242     1  0.0000000  0.6508444  3
   1231   1230   1234   1235     1  0.0000000  0.6508444  3
   1231   1230   1234   1236     1  0.0000000  0.6508444  3
   1231   1230   1237   1238     1  0.0000000  0.6508444  3
   1231   1230   1237   1239     1  0.0000000  0.6508444  3
   1231   1243   1255   1256     1  0.0000000  0.6508444  3
   1231   1243   1255   1257     1  0.0000000  0.6508444  3
   1232   1231   1230   1234     1  0.0000000  0.6508444  3
   1232   1231   1230   1237     1  0.0000000  0.6508444  3
   1232   1231   1230   1259     1  0.0000000  0.6508444  3
   1232   1231   1243   1255     1  0.0000000  0.6508444  3
   1232   1231   1243   1244     1  0.0000000  0.6508444  3
   1232   1231   1243   1245     1  0.0000000  0.6508444  3
   1233   1231   1230   1234     1  0.0000000  0.6508444  3
   1233   1231   1230   1237     1  0.0000000  0.6508444  3
   1233   1231   1230   1259     1  0.0000000  0.6508444  3
   1233   1231   1243   1255     1  0.0000000  0.6508444  3
   1233   1231   1243   1244     1  0.0000000  0.6508444  3
   1233   1231   1243   1245     1  0.0000000  0.6508444  3
   1234   1230   1237   1238     1  0.0000000  0.6508444  3
   1234   1230   1237   1239     1  0.0000000  0.6508444  3
   1234   1246   1252   1253     1  0.0000000  0.6508444  3
   1234   1246   1252   1254     1  0.0000000  0.6508444  3
   1235   1234   1230   1237     1  0.0000000  0.6508444  3
   1235   1234   1230   1259     1  0.0000000  0.6508444  3
   1235   1234   1246   1252     1  0.0000000  0.6508444  3
   1235   1234   1246   1247     1  0.0000000  0.6508444  3
   1235   1234   1246   1248     1  0.0000000  0.6508444  3
   1236   1234   1230   1237     1  0.0000000  0.6508444  3
   1236   1234   1230   1259     1  0.0000000  0.6508444  3
   1236   1234   1246   1252     1  0.0000000  0.6508444  3
   1236   1234   1246   1247     1  0.0000000  0.6508444  3
   1236   1234   1246   1248     1  0.0000000  0.6508444  3
   1237   1240   1249   1250     1  0.0000000  0.6508444  3
   1237   1240   1249   1251     1  0.0000000  0.6508444  3
   1238   1237   1230   1259     1  0.0000000  0.6508444  3
   1238   1237   1240   1249     1  0.0000000  0.6508444  3
   1238   1237   1240   1241     1  0.0000000  0.6508444  3
   1238   1237   1240   1242     1  0.0000000  0.6508444  3
   1239   1237   1230   1259     1  0.0000000  0.6508444  3
   1239   1237   1240   1249     1  0.0000000  0.6508444  3
   1239   1237   1240   1241     1  0.0000000  0.6508444  3
   1239   1237   1240   1242     1  0.0000000  0.6508444  3
   1240   1237   1230   1259     1  0.0000000  0.6508444  3
   1241   1240   1249   1258     1  0.0000000  1.0460000  1
   1241   1240   1249   1258     1  0.0000000  0.0000000  3
   1241   1240   1249   1250     1  0.0000000  0.6508444  3
   1241   1240   1249   1251     1  0.0000000  0.6508444  3
   1242   1240   1249   1258     1  0.0000000  1.0460000  1
   1242   1240   1249   1258     1  0.0000000  0.0000000  3
   1242   1240   1249   1250     1  0.0000000  0.6508444  3
   1242   1240   1249   1251     1  0.0000000  0.6508444  3
   1243   1231   1230   1259     1  0.0000000  0.6508444  3
   1244   1243   1255   2194     1  0.0000000  1.0460000  1
   1244   1243   1255   2194     1  0.0000000  0.0000000  3
   1244   1243   1255   1256     1  0.0000000  0.6508444  3
   1244   1243   1255   1257     1  0.0000000  0.6508444  3
   1245   1243   1255   2194     1  0.0000000  1.0460000  1
   1245   1243   1255   2194     1  0.0000000  0.0000000  3
   1245   1243   1255   1256     1  0.0000000  0.6508444  3
   1245   1243   1255   1257     1  0.0000000  0.6508444  3
   1246   1234   1230   1259     1  0.0000000  0.6508444  3
   1247   1246   1252   2180     1  0.0000000  1.0460000  1
   1247   1246   1252   2180     1  0.0000000  0.0000000  3
   1247   1246   1252   1253     1  0.0000000  0.6508444  3
   1247   1246   1252   1254     1  0.0000000  0.6508444  3
   1248   1246   1252   2180     1  0.0000000  1.0460000  1
   1248   1246   1252   2180     1  0.0000000  0.0000000  3
   1248   1246   1252   1253     1  0.0000000  0.6508444  3
   1248   1246   1252   1254     1  0.0000000  0.6508444  3
   1252   2180   2174   2175     1  0.0000000  1.6038667  3
   1252   2180   2174   2176     1  0.0000000  1.6038667  3
   1253   1252   2180   2174     1  0.0000000  1.6038667  3
   1254   1252   2180   2174     1  0.0000000  1.6038667  3
   1255   2194   2188   2189     1  0.0000000  1.6038667  3
   1255   2194   2188   2190     1  0.0000000  1.6038667  3
   1256   1255   2194   2188     1  0.0000000  1.6038667  3
   1257   1255   2194   2188     1  0.0000000  1.6038667  3
   1260   1261   1273   1274     1  0.0000000  0.6508444  3
   1260   1261   1273   1275     1  0.0000000  0.6508444  3
   1260   1264   1276   1277     1  0.0000000  0.6508444  3
   1260   1264   1276   1278     1  0.0000000  0.6508444  3
   1260   1267   1270   1271     1  0.0000000  0.6508444  3
   1260   1267   1270   1272     1  0.0000000  0.6508444  3
   1261   1260   1264   1265     1  0.0000000  0.6508444  3
   1261   1260   1264   1266     1  0.0000000  0.6508444  3
   1261   1260   1267   1268     1  0.0000000  0.6508444  3
   1261   1260   1267   1269     1  0.0000000  0.6508444  3
   1261   1273   1285   1286     1  0.0000000  0.6508444  3
   1261   1273   1285   1287     1  0.0000000  0.6508444  3
   1262   1261   1260   1264     1  0.0000000  0.6508444  3
   1262   1261   1260   1267     1  0.0000000  0.6508444  3
   1262   1261   1260   1289     1  0.0000000  0.6508444  3
   1262   1261   1273   1285     1  0.0000000  0.6508444  3
   1262   1261   1273   1274     1  0.0000000  0.6508444  3
   1262   1261   1273   1275     1  0.0000000  0.6508444  3
   1263   1261   1260   1264     1  0.0000000  0.6508444  3
   1263   1261   1260   1267     1  0.0000000  0.6508444  3
   1263   1261   1260   1289     1  0.0000000  0.6508444  3
   1263   1261   1273   1285     1  0.0000000  0.6508444  3
   1263   1261   1273   1274     1  0.0000000  0.6508444  3
   1263   1261   1273   1275     1  0.0000000  0.6508444  3
   1264   1260   1267   1268     1  0.0000000  0.6508444  3
   1264   1260   1267   1269     1  0.0000000  0.6508444  3
   1264   1276   1282   1283     1  0.0000000  0.6508444  3
   1264   1276   1282   1284     1  0.0000000  0.6508444  3
   1265   1264   1260   1267     1  0.0000000  0.6508444  3
   1265   1264   1260   1289     1  0.0000000  0.6508444  3
   1265   1264   1276   1282     1  0.0000000  0.6508444  3
   1265   1264   1276   1277     1  0.0000000  0.6508444  3
   1265   1264   1276   1278     1  0.0000000  0.6508444  3
   1266   1264   1260   1267     1  0.0000000  0.6508444  3
   1266   1264   1260   1289     1  0.0000000  0.6508444  3
   1266   1264   1276   1282     1  0.0000000  0.6508444  3
   1266   1264   1276   1277     1  0.0000000  0.6508444  3
   1266   1264   1276   1278     1  0.0000000  0.6508444  3
   1267   1270   1279   1280     1  0.0000000  0.6508444  3
   1267   1270   1279   1281     1  0.0000000  0.6508444  3
   1268   1267   1260   1289     1  0.0000000  0.6508444  3
   1268   1267   1270   1279     1  0.0000000  0.6508444  3
   1268   1267   1270   1271     1  0.0000000  0.6508444  3
   1268   1267   1270   1272     1  0.0000000  0.6508444  3
   1269   1267   1260   1289     1  0.0000000  0.6508444  3
   1269   1267   1270   1279     1  0.0000000  0.6508444  3
   1269   1267   1270   1271     1  0.0000000  0.6508444  3
   1269   1267   1270   1272     1  0.0000000  0.6508444  3
   1270   1267   1260   1289     1  0.0000000  0.6508444  3
   1271   1270   1279   1288     1  0.0000000  1.0460000  1
   1271   1270   1279   1288     1  0.0000000  0.0000000  3
   1271   1270   1279   1280     1  0.0000000  0.6508444  3
   1271   1270   1279   1281     1  0.0000000  0.6508444  3
   1272   1270   1279   1288     1  0.0000000  1.0460000  1
   1272   1270   1279   1288     1  0.0000000  0.0000000  3
   1272   1270   1279   1280     1  0.0000000  0.6508444  3
   1272   1270   1279   1281     1  0.0000000  0.6508444  3
   1273   1261   1260   1289     1  0.0000000  0.6508444  3
   1274   1273   1285   2222     1  0.0000000  1.0460000  1
   1274   1273   1285   2222     1  0.0000000  0.0000000  3
   1274   1273   1285   1286     1  0.0000000  0.6508444  3
   1274   1273   1285   1287     1  0.0000000  0.6508444  3
   1275   1273   1285   2222     1  0.0000000  1.0460000  1
   1275   1273   1285   2222     1  0.0000000  0.0000000  3
   1275   1273   1285   1286     1  0.0000000  0.6508444  3
   1275   1273   1285   1287     1  0.0000000  0.6508444  3
   1276   1264   1260   1289     1  0.0000000  0.6508444  3
   1277   1276   1282   2208     1  0.0000000  1.0460000  1
   1277   1276   1282   2208     1  0.0000000  0.0000000  3
   1277   1276   1282   1283     1  0.0000000  0.6508444  3
   1277   1276   1282   1284     1  0.0000000  0.6508444  3
   1278   1276   1282   2208     1  0.0000000  1.0460000  1
   1278   1276   1282   2208     1  0.0000000  0.0000000  3
   1278   1276   1282   1283     1  0.0000000  0.6508444  3
   1278   1276   1282   1284     1  0.0000000  0.6508444  3
   1282   2208   2202   2203     1  0.0000000  1.6038667  3
   1282   2208   2202   2204     1  0.0000000  1.6038667  3
   1283   1282   2208   2202     1  0.0000000  1.6038667  3
   1284   1282   2208   2202     1  0.0000000  1.6038667  3
   1285   2222   2216   2217     1  0.0000000  1.6038667  3
   1285   2222   2216   2218     1  0.0000000  1.6038667  3
   1286   1285   2222   2216     1  0.0000000  1.6038667  3
   1287   1285   2222   2216     1  0.0000000  1.6038667  3
   1290   1291   1303   1304     1  0.0000000  0.6508444  3
   1290   1291   1303   1305     1  0.0000000  0.6508444  3
   1290   1294   1306   1307     1  0.0000000  0.6508444  3
   1290   1294   1306   1308     1  0.0000000  0.6508444  3
   1290   1297   1300   1301     1  0.0000000  0.6508444  3
   1290   1297   1300   1302     1  0.0000000  0.6508444  3
   1291   1290   1294   1295     1  0.0000000  0.6508444  3
   1291   1290   1294   1296     1  0.0000000  0.6508444  3
   1291   1290   1297   1298     1  0.0000000  0.6508444  3
   1291   1290   1297   1299     1  0.0000000  0.6508444  3
   1291   1303   1315   1316     1  0.0000000  0.6508444  3
   1291   1303   1315   1317     1  0.0000000  0.6508444  3
   1292   1291   1290   1294     1  0.0000000  0.6508444  3
   1292   1291   1290   1297     1  0.0000000  0.6508444  3
   1292   1291   1290   1319     1  0.0000000  0.6508444  3
   1292   1291   1303   1315     1  0.0000000  0.6508444  3
   1292   1291   1303   1304     1  0.0000000  0.6508444  3
   1292   1291   1303   1305     1  0.0000000  0.6508444  3
   1293   1291   1290   1294     1  0.0000000  0.6508444  3
   1293   1291   1290   1297     1  0.0000000  0.6508444  3
   1293   1291   1290   1319     1  0.0000000  0.6508444  3
   1293   1291   1303   1315     1  0.0000000  0.6508444  3
   1293   1291   1303   1304     1  0.0000000  0.6508444  3
   1293   1291   1303   1305     1  0.0000000  0.6508444  3
   1294   1290   1297   1298     1  0.0000000  0.6508444  3
   1294   1290   1297   1299     1  0.0000000  0.6508444  3
   1294   1306   1312   1313     1  0.0000000  0.6508444  3
   1294   1306   1312   1314     1  0.0000000  0.6508444  3
   1295   1294   1290   1297     1  0.0000000  0.6508444  3
   1295   1294   1290   1319     1  0.0000000  0.6508444  3
   1295   1294   1306   1312     1  0.0000000  0.6508444  3
   1295   1294   1306   1307     1  0.0000000  0.6508444  3
   1295   1294   1306   1308     1  0.0000000  0.6508444  3
   1296   1294   1290   1297     1  0.0000000  0.6508444  3
   1296   1294   1290   1319     1  0.0000000  0.6508444  3
   1296   1294   1306   1312     1  0.0000000  0.6508444  3
   1296   1294   1306   1307     1  0.0000000  0.6508444  3
   1296   1294   1306   1308     1  0.0000000  0.6508444  3
   1297   1300   1309   1310     1  0.0000000  0.6508444  3
   1297   1300   1309   1311     1  0.0000000  0.6508444  3
   1298   1297   1290   1319     1  0.0000000  0.6508444  3
   1298   1297   1300   1309     1  0.0000000  0.6508444  3
   1298   1297   1300   1301     1  0.0000000  0.6508444  3
   1298   1297   1300   1302     1  0.0000000  0.6508444  3
   1299   1297   1290   1319     1  0.0000000  0.6508444  3
   1299   1297   1300   1309     1  0.0000000  0.6508444  3
   1299   1297   1300   1301     1  0.0000000  0.6508444  3
   1299   1297   1300   1302     1  0.0000000  0.6508444  3
   1300   1297   1290   1319     1  0.0000000  0.6508444  3
   1301   1300   1309   1318     1  0.0000000  1.0460000  1
   1301   1300   1309   1318     1  0.0000000  0.0000000  3
   1301   1300   1309   1310     1  0.0000000  0.6508444  3
   1301   1300   1309   1311     1  0.0000000  0.6508444  3
   1302   1300   1309   1318     1  0.0000000  1.0460000  1
   1302   1300   1309   1318     1  0.0000000  0.0000000  3
   1302   1300   1309   1310     1  0.0000000  0.6508444  3
   1302   1300   1309   1311     1  0.0000000  0.6508444  3
   1303   1291   1290   1319     1  0.0000000  0.6508444  3
   1304   1303   1315   2250     1  0.0000000  1.0460000  1
   1304   1303   1315   2250     1  0.0000000  0.0000000  3
   1304   1303   1315   1316     1  0.0000000  0.6508444  3
   1304   1303   1315   1317     1  0.0000000  0.6508444  3
   1305   1303   1315   2250     1  0.0000000  1.0460000  1
   1305   1303   1315   2250     1  0.0000000  0.0000000  3
   1305   1303   1315   1316     1  0.0000000  0.6508444  3
   1305   1303   1315   1317     1  0.0000000  0.6508444  3
   1306   1294   1290   1319     1  0.0000000  0.6508444  3
   1307   1306   1312   2236     1  0.0000000  1.0460000  1
   1307   1306   1312   2236     1  0.0000000  0.0000000  3
   1307   1306   1312   1313     1  0.0000000  0.6508444  3
   1307   1306   1312   1314     1  0.0000000  0.6508444  3
   1308   1306   1312   2236     1  0.0000000  1.0460000  1
   1308   1306   1312   2236     1  0.0000000  0.0000000  3
   1308   1306   1312   1313     1  0.0000000  0.6508444  3
   1308   1306   1312   1314     1  0.0000000  0.6508444  3
   1312   2236   2230   2231     1  0.0000000  1.6038667  3
   1312   2236   2230   2232     1  0.0000000  1.6038667  3
   1313   1312   2236   2230     1  0.0000000  1.6038667  3
   1314   1312   2236   2230     1  0.0000000  1.6038667  3
   1315   2250   2244   2245     1  0.0000000  1.6038667  3
   1315   2250   2244   2246     1  0.0000000  1.6038667  3
   1316   1315   2250   2244     1  0.0000000  1.6038667  3
   1317   1315   2250   2244     1  0.0000000  1.6038667  3
   1320   1321   1333   1334     1  0.0000000  0.6508444  3
   1320   1321   1333   1335     1  0.0000000  0.6508444  3
   1320   1324   1336   1337     1  0.0000000  0.6508444  3
   1320   1324   1336   1338     1  0.0000000  0.6508444  3
   1320   1327   1330   1331     1  0.0000000  0.6508444  3
   1320   1327   1330   1332     1  0.0000000  0.6508444  3
   1321   1320   1324   1325     1  0.0000000  0.6508444  3
   1321   1320   1324   1326     1  0.0000000  0.6508444  3
   1321   1320   1327   1328     1  0.0000000  0.6508444  3
   1321   1320   1327   1329     1  0.0000000  0.6508444  3
   1321   1333   1345   1346     1  0.0000000  0.6508444  3
   1321   1333   1345   1347     1  0.0000000  0.6508444  3
   1322   1321   1320   1324     1  0.0000000  0.6508444  3
   1322   1321   1320   1327     1  0.0000000  0.6508444  3
   1322   1321   1320   1349     1  0.0000000  0.6508444  3
   1322   1321   1333   1345     1  0.0000000  0.6508444  3
   1322   1321   1333   1334     1  0.0000000  0.6508444  3
   1322   1321   1333   1335     1  0.0000000  0.6508444  3
   1323   1321   1320   1324     1  0.0000000  0.6508444  3
   1323   1321   1320   1327     1  0.0000000  0.6508444  3
   1323   1321   1320   1349     1  0.0000000  0.6508444  3
   1323   1321   1333   1345     1  0.0000000  0.6508444  3
   1323   1321   1333   1334     1  0.0000000  0.6508444  3
   1323   1321   1333   1335     1  0.0000000  0.6508444  3
   1324   1320   1327   1328     1  0.0000000  0.6508444  3
   1324   1320   1327   1329     1  0.0000000  0.6508444  3
   1324   1336   1342   1343     1  0.0000000  0.6508444  3
   1324   1336   1342   1344     1  0.0000000  0.6508444  3
   1325   1324   1320   1327     1  0.0000000  0.6508444  3
   1325   1324   1320   1349     1  0.0000000  0.6508444  3
   1325   1324   1336   1342     1  0.0000000  0.6508444  3
   1325   1324   1336   1337     1  0.0000000  0.6508444  3
   1325   1324   1336   1338     1  0.0000000  0.6508444  3
   1326   1324   1320   1327     1  0.0000000  0.6508444  3
   1326   1324   1320   1349     1  0.0000000  0.6508444  3
   1326   1324   1336   1342     1  0.0000000  0.6508444  3
   1326   1324   1336   1337     1  0.0000000  0.6508444  3
   1326   1324   1336   1338     1  0.0000000  0.6508444  3
   1327   1330   1339   1340     1  0.0000000  0.6508444  3
   1327   1330   1339   1341     1  0.0000000  0.6508444  3
   1328   1327   1320   1349     1  0.0000000  0.6508444  3
   1328   1327   1330   1339     1  0.0000000  0.6508444  3
   1328   1327   1330   1331     1  0.0000000  0.6508444  3
   1328   1327   1330   1332     1  0.0000000  0.6508444  3
   1329   1327   1320   1349     1  0.0000000  0.6508444  3
   1329   1327   1330   1339     1  0.0000000  0.6508444  3
   1329   1327   1330   1331     1  0.0000000  0.6508444  3
   1329   1327   1330   1332     1  0.0000000  0.6508444  3
   1330   1327   1320   1349     1  0.0000000  0.6508444  3
   1331   1330   1339   1348     1  0.0000000  1.0460000  1
   1331   1330   1339   1348     1  0.0000000  0.0000000  3
   1331   1330   1339   1340     1  0.0000000  0.6508444  3
   1331   1330   1339   1341     1  0.0000000  0.6508444  3
   1332   1330   1339   1348     1  0.0000000  1.0460000  1
   1332   1330   1339   1348     1  0.0000000  0.0000000  3
   1332   1330   1339   1340     1  0.0000000  0.6508444  3
   1332   1330   1339   1341     1  0.0000000  0.6508444  3
   1333   1321   1320   1349     1  0.0000000  0.6508444  3
   1334   1333   1345   2278     1  0.0000000  1.0460000  1
   1334   1333   1345   2278     1  0.0000000  0.0000000  3
   1334   1333   1345   1346     1  0.0000000  0.6508444  3
   1334   1333   1345   1347     1  0.0000000  0.6508444  3
   1335   1333   1345   2278     1  0.0000000  1.0460000  1
   1335   1333   1345   2278     1  0.0000000  0.0000000  3
   1335   1333   1345   1346     1  0.0000000  0.6508444  3
   1335   1333   1345   1347     1  0.0000000  0.6508444  3
   1336   1324   1320   1349     1  0.0000000  0.6508444  3
   1337   1336   1342   2264     1  0.0000000  1.0460000  1
   1337   1336   1342   2264     1  0.0000000  0.0000000  3
   1337   1336   1342   1343     1  0.0000000  0.6508444  3
   1337   1336   1342   1344     1  0.0000000  0.6508444  3
   1338   1336   1342   2264     1  0.0000000  1.0460000  1
   1338   1336   1342   2264     1  0.0000000  0.0000000  3
   1338   1336   1342   1343     1  0.0000000  0.6508444  3
   1338   1336   1342   1344     1  0.0000000  0.6508444  3
   1342   2264   2258   2259     1  0.0000000  1.6038667  3
   1342   2264   2258   2260     1  0.0000000  1.6038667  3
   1343   1342   2264   2258     1  0.0000000  1.6038667  3
   1344   1342   2264   2258     1  0.0000000  1.6038667  3
   1345   2278   2272   2273     1  0.0000000  1.6038667  3
   1345   2278   2272   2274     1  0.0000000  1.6038667  3
   1346   1345   2278   2272     1  0.0000000  1.6038667  3
   1347   1345   2278   2272     1  0.0000000  1.6038667  3
   1350   1351   1363   1364     1  0.0000000  0.6508444  3
   1350   1351   1363   1365     1  0.0000000  0.6508444  3
   1350   1354   1366   1367     1  0.0000000  0.6508444  3
   1350   1354   1366   1368     1  0.0000000  0.6508444  3
   1350   1357   1360   1361     1  0.0000000  0.6508444  3
   1350   1357   1360   1362     1  0.0000000  0.6508444  3
   1351   1350   1354   1355     1  0.0000000  0.6508444  3
   1351   1350   1354   1356     1  0.0000000  0.6508444  3
   1351   1350   1357   1358     1  0.0000000  0.6508444  3
   1351   1350   1357   1359     1  0.0000000  0.6508444  3
   1351   1363   1375   1376     1  0.0000000  0.6508444  3
   1351   1363   1375   1377     1  0.0000000  0.6508444  3
   1352   1351   1350   1354     1  0.0000000  0.6508444  3
   1352   1351   1350   1357     1  0.0000000  0.6508444  3
   1352   1351   1350   1379     1  0.0000000  0.6508444  3
   1352   1351   1363   1375     1  0.0000000  0.6508444  3
   1352   1351   1363   1364     1  0.0000000  0.6508444  3
   1352   1351   1363   1365     1  0.0000000  0.6508444  3
   1353   1351   1350   1354     1  0.0000000  0.6508444  3
   1353   1351   1350   1357     1  0.0000000  0.6508444  3
   1353   1351   1350   1379     1  0.0000000  0.6508444  3
   1353   1351   1363   1375     1  0.0000000  0.6508444  3
   1353   1351   1363   1364     1  0.0000000  0.6508444  3
   1353   1351   1363   1365     1  0.0000000  0.6508444  3
   1354   1350   1357   1358     1  0.0000000  0.6508444  3
   1354   1350   1357   1359     1  0.0000000  0.6508444  3
   1354   1366   1372   1373     1  0.0000000  0.6508444  3
   1354   1366   1372   1374     1  0.0000000  0.6508444  3
   1355   1354   1350   1357     1  0.0000000  0.6508444  3
   1355   1354   1350   1379     1  0.0000000  0.6508444  3
   1355   1354   1366   1372     1  0.0000000  0.6508444  3
   1355   1354   1366   1367     1  0.0000000  0.6508444  3
   1355   1354   1366   1368     1  0.0000000  0.6508444  3
   1356   1354   1350   1357     1  0.0000000  0.6508444  3
   1356   1354   1350   1379     1  0.0000000  0.6508444  3
   1356   1354   1366   1372     1  0.0000000  0.6508444  3
   1356   1354   1366   1367     1  0.0000000  0.6508444  3
   1356   1354   1366   1368     1  0.0000000  0.6508444  3
   1357   1360   1369   1370     1  0.0000000  0.6508444  3
   1357   1360   1369   1371     1  0.0000000  0.6508444  3
   1358   1357   1350   1379     1  0.0000000  0.6508444  3
   1358   1357   1360   1369     1  0.0000000  0.6508444  3
   1358   1357   1360   1361     1  0.0000000  0.6508444  3
   1358   1357   1360   1362     1  0.0000000  0.6508444  3
   1359   1357   1350   1379     1  0.0000000  0.6508444  3
   1359   1357   1360   1369     1  0.0000000  0.6508444  3
   1359   1357   1360   1361     1  0.0000000  0.6508444  3
   1359   1357   1360   1362     1  0.0000000  0.6508444  3
   1360   1357   1350   1379     1  0.0000000  0.6508444  3
   1361   1360   1369   1378     1  0.0000000  1.0460000  1
   1361   1360   1369   1378     1  0.0000000  0.0000000  3
   1361   1360   1369   1370     1  0.0000000  0.6508444  3
   1361   1360   1369   1371     1  0.0000000  0.6508444  3
   1362   1360   1369   1378     1  0.0000000  1.0460000  1
   1362   1360   1369   1378     1  0.0000000  0.0000000  3
   1362   1360   1369   1370     1  0.0000000  0.6508444  3
   1362   1360   1369   1371     1  0.0000000  0.6508444  3
   1363   1351   1350   1379     1  0.0000000  0.6508444  3
   1364   1363   1375   2306     1  0.0000000  1.0460000  1
   1364   1363   1375   2306     1  0.0000000  0.0000000  3
   1364   1363   1375   1376     1  0.0000000  0.6508444  3
   1364   1363   1375   1377     1  0.0000000  0.6508444  3
   1365   1363   1375   2306     1  0.0000000  1.0460000  1
   1365   1363   1375   2306     1  0.0000000  0.0000000  3
   1365   1363   1375   1376     1  0.0000000  0.6508444  3
   1365   1363   1375   1377     1  0.0000000  0.6508444  3
   1366   1354   1350   1379     1  0.0000000  0.6508444  3
   1367   1366   1372   2292     1  0.0000000  1.0460000  1
   1367   1366   1372   2292     1  0.0000000  0.0000000  3
   1367   1366   1372   1373     1  0.0000000  0.6508444  3
   1367   1366   1372   1374     1  0.0000000  0.6508444  3
   1368   1366   1372   2292     1  0.0000000  1.0460000  1
   1368   1366   1372   2292     1  0.0000000  0.0000000  3
   1368   1366   1372   1373     1  0.0000000  0.6508444  3
   1368   1366   1372   1374     1  0.0000000  0.6508444  3
   1372   2292   2286   2287     1  0.0000000  1.6038667  3
   1372   2292   2286   2288     1  0.0000000  1.6038667  3
   1373   1372   2292   2286     1  0.0000000  1.6038667  3
   1374   1372   2292   2286     1  0.0000000  1.6038667  3
   1375   2306   2300   2301     1  0.0000000  1.6038667  3
   1375   2306   2300   2302     1  0.0000000  1.6038667  3
   1376   1375   2306   2300     1  0.0000000  1.6038667  3
   1377   1375   2306   2300     1  0.0000000  1.6038667  3
   1380   1381   1393   1394     1  0.0000000  0.6508444  3
   1380   1381   1393   1395     1  0.0000000  0.6508444  3
   1380   1384   1396   1397     1  0.0000000  0.6508444  3
   1380   1384   1396   1398     1  0.0000000  0.6508444  3
   1380   1387   1390   1391     1  0.0000000  0.6508444  3
   1380   1387   1390   1392     1  0.0000000  0.6508444  3
   1381   1380   1384   1385     1  0.0000000  0.6508444  3
   1381   1380   1384   1386     1  0.0000000  0.6508444  3
   1381   1380   1387   1388     1  0.0000000  0.6508444  3
   1381   1380   1387   1389     1  0.0000000  0.6508444  3
   1381   1393   1405   1406     1  0.0000000  0.6508444  3
   1381   1393   1405   1407     1  0.0000000  0.6508444  3
   1382   1381   1380   1384     1  0.0000000  0.6508444  3
   1382   1381   1380   1387     1  0.0000000  0.6508444  3
   1382   1381   1380   1409     1  0.0000000  0.6508444  3
   1382   1381   1393   1405     1  0.0000000  0.6508444  3
   1382   1381   1393   1394     1  0.0000000  0.6508444  3
   1382   1381   1393   1395     1  0.0000000  0.6508444  3
   1383   1381   1380   1384     1  0.0000000  0.6508444  3
   1383   1381   1380   1387     1  0.0000000  0.6508444  3
   1383   1381   1380   1409     1  0.0000000  0.6508444  3
   1383   1381   1393   1405     1  0.0000000  0.6508444  3
   1383   1381   1393   1394     1  0.0000000  0.6508444  3
   1383   1381   1393   1395     1  0.0000000  0.6508444  3
   1384   1380   1387   1388     1  0.0000000  0.6508444  3
   1384   1380   1387   1389     1  0.0000000  0.6508444  3
   1384   1396   1402   1403     1  0.0000000  0.6508444  3
   1384   1396   1402   1404     1  0.0000000  0.6508444  3
   1385   1384   1380   1387     1  0.0000000  0.6508444  3
   1385   1384   1380   1409     1  0.0000000  0.6508444  3
   1385   1384   1396   1402     1  0.0000000  0.6508444  3
   1385   1384   1396   1397     1  0.0000000  0.6508444  3
   1385   1384   1396   1398     1  0.0000000  0.6508444  3
   1386   1384   1380   1387     1  0.0000000  0.6508444  3
   1386   1384   1380   1409     1  0.0000000  0.6508444  3
   1386   1384   1396   1402     1  0.0000000  0.6508444  3
   1386   1384   1396   1397     1  0.0000000  0.6508444  3
   1386   1384   1396   1398     1  0.0000000  0.6508444  3
   1387   1390   1399   1400     1  0.0000000  0.6508444  3
   1387   1390   1399   1401     1  0.0000000  0.6508444  3
   1388   1387   1380   1409     1  0.0000000  0.6508444  3
   1388   1387   1390   1399     1  0.0000000  0.6508444  3
   1388   1387   1390   1391     1  0.0000000  0.6508444  3
   1388   1387   1390   1392     1  0.0000000  0.6508444  3
   1389   1387   1380   1409     1  0.0000000  0.6508444  3
   1389   1387   1390   1399     1  0.0000000  0.6508444  3
   1389   1387   1390   1391     1  0.0000000  0.6508444  3
   1389   1387   1390   1392     1  0.0000000  0.6508444  3
   1390   1387   1380   1409     1  0.0000000  0.6508444  3
   1391   1390   1399   1408     1  0.0000000  1.0460000  1
   1391   1390   1399   1408     1  0.0000000  0.0000000  3
   1391   1390   1399   1400     1  0.0000000  0.6508444  3
   1391   1390   1399   1401     1  0.0000000  0.6508444  3
   1392   1390   1399   1408     1  0.0000000  1.0460000  1
   1392   1390   1399   1408     1  0.0000000  0.0000000  3
   1392   1390   1399   1400     1  0.0000000  0.6508444  3
   1392   1390   1399   1401     1  0.0000000  0.6508444  3
   1393   1381   1380   1409     1  0.0000000  0.6508444  3
   1394   1393   1405   2334     1  0.0000000  1.0460000  1
   1394   1393   1405   2334     1  0.0000000  0.0000000  3
   1394   1393   1405   1406     1  0.0000000  0.6508444  3
   1394   1393   1405   1407     1  0.0000000  0.6508444  3
   1395   1393   1405   2334     1  0.0000000  1.0460000  1
   1395   1393   1405   2334     1  0.0000000  0.0000000  3
   1395   1393   1405   1406     1  0.0000000  0.6508444  3
   1395   1393   1405   1407     1  0.0000000  0.6508444  3
   1396   1384   1380   1409     1  0.0000000  0.6508444  3
   1397   1396   1402   2320     1  0.0000000  1.0460000  1
   1397   1396   1402   2320     1  0.0000000  0.0000000  3
   1397   1396   1402   1403     1  0.0000000  0.6508444  3
   1397   1396   1402   1404     1  0.0000000  0.6508444  3
   1398   1396   1402   2320     1  0.0000000  1.0460000  1
   1398   1396   1402   2320     1  0.0000000  0.0000000  3
   1398   1396   1402   1403     1  0.0000000  0.6508444  3
   1398   1396   1402   1404     1  0.0000000  0.6508444  3
   1402   2320   2314   2315     1  0.0000000  1.6038667  3
   1402   2320   2314   2316     1  0.0000000  1.6038667  3
   1403   1402   2320   2314     1  0.0000000  1.6038667  3
   1404   1402   2320   2314     1  0.0000000  1.6038667  3
   1405   2334   2328   2329     1  0.0000000  1.6038667  3
   1405   2334   2328   2330     1  0.0000000  1.6038667  3
   1406   1405   2334   2328     1  0.0000000  1.6038667  3
   1407   1405   2334   2328     1  0.0000000  1.6038667  3
   1410   1411   1423   1424     1  0.0000000  0.6508444  3
   1410   1411   1423   1425     1  0.0000000  0.6508444  3
   1410   1414   1426   1427     1  0.0000000  0.6508444  3
   1410   1414   1426   1428     1  0.0000000  0.6508444  3
   1410   1417   1420   1421     1  0.0000000  0.6508444  3
   1410   1417   1420   1422     1  0.0000000  0.6508444  3
   1411   1410   1414   1415     1  0.0000000  0.6508444  3
   1411   1410   1414   1416     1  0.0000000  0.6508444  3
   1411   1410   1417   1418     1  0.0000000  0.6508444  3
   1411   1410   1417   1419     1  0.0000000  0.6508444  3
   1411   1423   1435   1436     1  0.0000000  0.6508444  3
   1411   1423   1435   1437     1  0.0000000  0.6508444  3
   1412   1411   1410   1414     1  0.0000000  0.6508444  3
   1412   1411   1410   1417     1  0.0000000  0.6508444  3
   1412   1411   1410   1439     1  0.0000000  0.6508444  3
   1412   1411   1423   1435     1  0.0000000  0.6508444  3
   1412   1411   1423   1424     1  0.0000000  0.6508444  3
   1412   1411   1423   1425     1  0.0000000  0.6508444  3
   1413   1411   1410   1414     1  0.0000000  0.6508444  3
   1413   1411   1410   1417     1  0.0000000  0.6508444  3
   1413   1411   1410   1439     1  0.0000000  0.6508444  3
   1413   1411   1423   1435     1  0.0000000  0.6508444  3
   1413   1411   1423   1424     1  0.0000000  0.6508444  3
   1413   1411   1423   1425     1  0.0000000  0.6508444  3
   1414   1410   1417   1418     1  0.0000000  0.6508444  3
   1414   1410   1417   1419     1  0.0000000  0.6508444  3
   1414   1426   1432   1433     1  0.0000000  0.6508444  3
   1414   1426   1432   1434     1  0.0000000  0.6508444  3
   1415   1414   1410   1417     1  0.0000000  0.6508444  3
   1415   1414   1410   1439     1  0.0000000  0.6508444  3
   1415   1414   1426   1432     1  0.0000000  0.6508444  3
   1415   1414   1426   1427     1  0.0000000  0.6508444  3
   1415   1414   1426   1428     1  0.0000000  0.6508444  3
   1416   1414   1410   1417     1  0.0000000  0.6508444  3
   1416   1414   1410   1439     1  0.0000000  0.6508444  3
   1416   1414   1426   1432     1  0.0000000  0.6508444  3
   1416   1414   1426   1427     1  0.0000000  0.6508444  3
   1416   1414   1426   1428     1  0.0000000  0.6508444  3
   1417   1420   1429   1430     1  0.0000000  0.6508444  3
   1417   1420   1429   1431     1  0.0000000  0.6508444  3
   1418   1417   1410   1439     1  0.0000000  0.6508444  3
   1418   1417   1420   1429     1  0.0000000  0.6508444  3
   1418   1417   1420   1421     1  0.0000000  0.6508444  3
   1418   1417   1420   1422     1  0.0000000  0.6508444  3
   1419   1417   1410   1439     1  0.0000000  0.6508444  3
   1419   1417   1420   1429     1  0.0000000  0.6508444  3
   1419   1417   1420   1421     1  0.0000000  0.6508444  3
   1419   1417   1420   1422     1  0.0000000  0.6508444  3
   1420   1417   1410   1439     1  0.0000000  0.6508444  3
   1421   1420   1429   1438     1  0.0000000  1.0460000  1
   1421   1420   1429   1438     1  0.0000000  0.0000000  3
   1421   1420   1429   1430     1  0.0000000  0.6508444  3
   1421   1420   1429   1431     1  0.0000000  0.6508444  3
   1422   1420   1429   1438     1  0.0000000  1.0460000  1
   1422   1420   1429   1438     1  0.0000000  0.0000000  3
   1422   1420   1429   1430     1  0.0000000  0.6508444  3
   1422   1420   1429   1431     1  0.0000000  0.6508444  3
   1423   1411   1410   1439     1  0.0000000  0.6508444  3
   1424   1423   1435   2362     1  0.0000000  1.0460000  1
   1424   1423   1435   2362     1  0.0000000  0.0000000  3
   1424   1423   1435   1436     1  0.0000000  0.6508444  3
   1424   1423   1435   1437     1  0.0000000  0.6508444  3
   1425   1423   1435   2362     1  0.0000000  1.0460000  1
   1425   1423   1435   2362     1  0.0000000  0.0000000  3
   1425   1423   1435   1436     1  0.0000000  0.6508444  3
   1425   1423   1435   1437     1  0.0000000  0.6508444  3
   1426   1414   1410   1439     1  0.0000000  0.6508444  3
   1427   1426   1432   2348     1  0.0000000  1.0460000  1
   1427   1426   1432   2348     1  0.0000000  0.0000000  3
   1427   1426   1432   1433     1  0.0000000  0.6508444  3
   1427   1426   1432   1434     1  0.0000000  0.6508444  3
   1428   1426   1432   2348     1  0.0000000  1.0460000  1
   1428   1426   1432   2348     1  0.0000000  0.0000000  3
   1428   1426   1432   1433     1  0.0000000  0.6508444  3
   1428   1426   1432   1434     1  0.0000000  0.6508444  3
   1432   2348   2342   2343     1  0.0000000  1.6038667  3
   1432   2348   2342   2344     1  0.0000000  1.6038667  3
   1433   1432   2348   2342     1  0.0000000  1.6038667  3
   1434   1432   2348   2342     1  0.0000000  1.6038667  3
   1435   2362   2356   2357     1  0.0000000  1.6038667  3
   1435   2362   2356   2358     1  0.0000000  1.6038667  3
   1436   1435   2362   2356     1  0.0000000  1.6038667  3
   1437   1435   2362   2356     1  0.0000000  1.6038667  3
   1440   1441   1453   1454     1  0.0000000  0.6508444  3
   1440   1441   1453   1455     1  0.0000000  0.6508444  3
   1440   1444   1456   1457     1  0.0000000  0.6508444  3
   1440   1444   1456   1458     1  0.0000000  0.6508444  3
   1440   1447   1450   1451     1  0.0000000  0.6508444  3
   1440   1447   1450   1452     1  0.0000000  0.6508444  3
   1441   1440   1444   1445     1  0.0000000  0.6508444  3
   1441   1440   1444   1446     1  0.0000000  0.6508444  3
   1441   1440   1447   1448     1  0.0000000  0.6508444  3
   1441   1440   1447   1449     1  0.0000000  0.6508444  3
   1441   1453   1465   1466     1  0.0000000  0.6508444  3
   1441   1453   1465   1467     1  0.0000000  0.6508444  3
   1442   1441   1440   1444     1  0.0000000  0.6508444  3
   1442   1441   1440   1447     1  0.0000000  0.6508444  3
   1442   1441   1440   1469     1  0.0000000  0.6508444  3
   1442   1441   1453   1465     1  0.0000000  0.6508444  3
   1442   1441   1453   1454     1  0.0000000  0.6508444  3
   1442   1441   1453   1455     1  0.0000000  0.6508444  3
   1443   1441   1440   1444     1  0.0000000  0.6508444  3
   1443   1441   1440   1447     1  0.0000000  0.6508444  3
   1443   1441   1440   1469     1  0.0000000  0.6508444  3
   1443   1441   1453   1465     1  0.0000000  0.6508444  3
   1443   1441   1453   1454     1  0.0000000  0.6508444  3
   1443   1441   1453   1455     1  0.0000000  0.6508444  3
   1444   1440   1447   1448     1  0.0000000  0.6508444  3
   1444   1440   1447   1449     1  0.0000000  0.6508444  3
   1444   1456   1462   1463     1  0.0000000  0.6508444  3
   1444   1456   1462   1464     1  0.0000000  0.6508444  3
   1445   1444   1440   1447     1  0.0000000  0.6508444  3
   1445   1444   1440   1469     1  0.0000000  0.6508444  3
   1445   1444   1456   1462     1  0.0000000  0.6508444  3
   1445   1444   1456   1457     1  0.0000000  0.6508444  3
   1445   1444   1456   1458     1  0.0000000  0.6508444  3
   1446   1444   1440   1447     1  0.0000000  0.6508444  3
   1446   1444   1440   1469     1  0.0000000  0.6508444  3
   1446   1444   1456   1462     1  0.0000000  0.6508444  3
   1446   1444   1456   1457     1  0.0000000  0.6508444  3
   1446   1444   1456   1458     1  0.0000000  0.6508444  3
   1447   1450   1459   1460     1  0.0000000  0.6508444  3
   1447   1450   1459   1461     1  0.0000000  0.6508444  3
   1448   1447   1440   1469     1  0.0000000  0.6508444  3
   1448   1447   1450   1459     1  0.0000000  0.6508444  3
   1448   1447   1450   1451     1  0.0000000  0.6508444  3
   1448   1447   1450   1452     1  0.0000000  0.6508444  3
   1449   1447   1440   1469     1  0.0000000  0.6508444  3
   1449   1447   1450   1459     1  0.0000000  0.6508444  3
   1449   1447   1450   1451     1  0.0000000  0.6508444  3
   1449   1447   1450   1452     1  0.0000000  0.6508444  3
   1450   1447   1440   1469     1  0.0000000  0.6508444  3
   1451   1450   1459   1468     1  0.0000000  1.0460000  1
   1451   1450   1459   1468     1  0.0000000  0.0000000  3
   1451   1450   1459   1460     1  0.0000000  0.6508444  3
   1451   1450   1459   1461     1  0.0000000  0.6508444  3
   1452   1450   1459   1468     1  0.0000000  1.0460000  1
   1452   1450   1459   1468     1  0.0000000  0.0000000  3
   1452   1450   1459   1460     1  0.0000000  0.6508444  3
   1452   1450   1459   1461     1  0.0000000  0.6508444  3
   1453   1441   1440   1469     1  0.0000000  0.6508444  3
   1454   1453   1465   2390     1  0.0000000  1.0460000  1
   1454   1453   1465   2390     1  0.0000000  0.0000000  3
   1454   1453   1465   1466     1  0.0000000  0.6508444  3
   1454   1453   1465   1467     1  0.0000000  0.6508444  3
   1455   1453   1465   2390     1  0.0000000  1.0460000  1
   1455   1453   1465   2390     1  0.0000000  0.0000000  3
   1455   1453   1465   1466     1  0.0000000  0.6508444  3
   1455   1453   1465   1467     1  0.0000000  0.6508444  3
   1456   1444   1440   1469     1  0.0000000  0.6508444  3
   1457   1456   1462   2376     1  0.0000000  1.0460000  1
   1457   1456   1462   2376     1  0.0000000  0.0000000  3
   1457   1456   1462   1463     1  0.0000000  0.6508444  3
   1457   1456   1462   1464     1  0.0000000  0.6508444  3
   1458   1456   1462   2376     1  0.0000000  1.0460000  1
   1458   1456   1462   2376     1  0.0000000  0.0000000  3
   1458   1456   1462   1463     1  0.0000000  0.6508444  3
   1458   1456   1462   1464     1  0.0000000  0.6508444  3
   1462   2376   2370   2371     1  0.0000000  1.6038667  3
   1462   2376   2370   2372     1  0.0000000  1.6038667  3
   1463   1462   2376   2370     1  0.0000000  1.6038667  3
   1464   1462   2376   2370     1  0.0000000  1.6038667  3
   1465   2390   2384   2385     1  0.0000000  1.6038667  3
   1465   2390   2384   2386     1  0.0000000  1.6038667  3
   1466   1465   2390   2384     1  0.0000000  1.6038667  3
   1467   1465   2390   2384     1  0.0000000  1.6038667  3
   1470   1471   1483   1484     1  0.0000000  0.6508444  3
   1470   1471   1483   1485     1  0.0000000  0.6508444  3
   1470   1474   1486   1487     1  0.0000000  0.6508444  3
   1470   1474   1486   1488     1  0.0000000  0.6508444  3
   1470   1477   1480   1481     1  0.0000000  0.6508444  3
   1470   1477   1480   1482     1  0.0000000  0.6508444  3
   1471   1470   1474   1475     1  0.0000000  0.6508444  3
   1471   1470   1474   1476     1  0.0000000  0.6508444  3
   1471   1470   1477   1478     1  0.0000000  0.6508444  3
   1471   1470   1477   1479     1  0.0000000  0.6508444  3
   1471   1483   1495   1496     1  0.0000000  0.6508444  3
   1471   1483   1495   1497     1  0.0000000  0.6508444  3
   1472   1471   1470   1474     1  0.0000000  0.6508444  3
   1472   1471   1470   1477     1  0.0000000  0.6508444  3
   1472   1471   1470   1499     1  0.0000000  0.6508444  3
   1472   1471   1483   1495     1  0.0000000  0.6508444  3
   1472   1471   1483   1484     1  0.0000000  0.6508444  3
   1472   1471   1483   1485     1  0.0000000  0.6508444  3
   1473   1471   1470   1474     1  0.0000000  0.6508444  3
   1473   1471   1470   1477     1  0.0000000  0.6508444  3
   1473   1471   1470   1499     1  0.0000000  0.6508444  3
   1473   1471   1483   1495     1  0.0000000  0.6508444  3
   1473   1471   1483   1484     1  0.0000000  0.6508444  3
   1473   1471   1483   1485     1  0.0000000  0.6508444  3
   1474   1470   1477   1478     1  0.0000000  0.6508444  3
   1474   1470   1477   1479     1  0.0000000  0.6508444  3
   1474   1486   1492   1493     1  0.0000000  0.6508444  3
   1474   1486   1492   1494     1  0.0000000  0.6508444  3
   1475   1474   1470   1477     1  0.0000000  0.6508444  3
   1475   1474   1470   1499     1  0.0000000  0.6508444  3
   1475   1474   1486   1492     1  0.0000000  0.6508444  3
   1475   1474   1486   1487     1  0.0000000  0.6508444  3
   1475   1474   1486   1488     1  0.0000000  0.6508444  3
   1476   1474   1470   1477     1  0.0000000  0.6508444  3
   1476   1474   1470   1499     1  0.0000000  0.6508444  3
   1476   1474   1486   1492     1  0.0000000  0.6508444  3
   1476   1474   1486   1487     1  0.0000000  0.6508444  3
   1476   1474   1486   1488     1  0.0000000  0.6508444  3
   1477   1480   1489   1490     1  0.0000000  0.6508444  3
   1477   1480   1489   1491     1  0.0000000  0.6508444  3
   1478   1477   1470   1499     1  0.0000000  0.6508444  3
   1478   1477   1480   1489     1  0.0000000  0.6508444  3
   1478   1477   1480   1481     1  0.0000000  0.6508444  3
   1478   1477   1480   1482     1  0.0000000  0.6508444  3
   1479   1477   1470   1499     1  0.0000000  0.6508444  3
   1479   1477   1480   1489     1  0.0000000  0.6508444  3
   1479   1477   1480   1481     1  0.0000000  0.6508444  3
   1479   1477   1480   1482     1  0.0000000  0.6508444  3
   1480   1477   1470   1499     1  0.0000000  0.6508444  3
   1481   1480   1489   1498     1  0.0000000  1.0460000  1
   1481   1480   1489   1498     1  0.0000000  0.0000000  3
   1481   1480   1489   1490     1  0.0000000  0.6508444  3
   1481   1480   1489   1491     1  0.0000000  0.6508444  3
   1482   1480   1489   1498     1  0.0000000  1.0460000  1
   1482   1480   1489   1498     1  0.0000000  0.0000000  3
   1482   1480   1489   1490     1  0.0000000  0.6508444  3
   1482   1480   1489   1491     1  0.0000000  0.6508444  3
   1483   1471   1470   1499     1  0.0000000  0.6508444  3
   1484   1483   1495   2418     1  0.0000000  1.0460000  1
   1484   1483   1495   2418     1  0.0000000  0.0000000  3
   1484   1483   1495   1496     1  0.0000000  0.6508444  3
   1484   1483   1495   1497     1  0.0000000  0.6508444  3
   1485   1483   1495   2418     1  0.0000000  1.0460000  1
   1485   1483   1495   2418     1  0.0000000  0.0000000  3
   1485   1483   1495   1496     1  0.0000000  0.6508444  3
   1485   1483   1495   1497     1  0.0000000  0.6508444  3
   1486   1474   1470   1499     1  0.0000000  0.6508444  3
   1487   1486   1492   2404     1  0.0000000  1.0460000  1
   1487   1486   1492   2404     1  0.0000000  0.0000000  3
   1487   1486   1492   1493     1  0.0000000  0.6508444  3
   1487   1486   1492   1494     1  0.0000000  0.6508444  3
   1488   1486   1492   2404     1  0.0000000  1.0460000  1
   1488   1486   1492   2404     1  0.0000000  0.0000000  3
   1488   1486   1492   1493     1  0.0000000  0.6508444  3
   1488   1486   1492   1494     1  0.0000000  0.6508444  3
   1492   2404   2398   2399     1  0.0000000  1.6038667  3
   1492   2404   2398   2400     1  0.0000000  1.6038667  3
   1493   1492   2404   2398     1  0.0000000  1.6038667  3
   1494   1492   2404   2398     1  0.0000000  1.6038667  3
   1495   2418   2412   2413     1  0.0000000  1.6038667  3
   1495   2418   2412   2414     1  0.0000000  1.6038667  3
   1496   1495   2418   2412     1  0.0000000  1.6038667  3
   1497   1495   2418   2412     1  0.0000000  1.6038667  3
   1500   1501   1513   1514     1  0.0000000  0.6508444  3
   1500   1501   1513   1515     1  0.0000000  0.6508444  3
   1500   1504   1516   1517     1  0.0000000  0.6508444  3
   1500   1504   1516   1518     1  0.0000000  0.6508444  3
   1500   1507   1510   1511     1  0.0000000  0.6508444  3
   1500   1507   1510   1512     1  0.0000000  0.6508444  3
   1501   1500   1504   1505     1  0.0000000  0.6508444  3
   1501   1500   1504   1506     1  0.0000000  0.6508444  3
   1501   1500   1507   1508     1  0.0000000  0.6508444  3
   1501   1500   1507   1509     1  0.0000000  0.6508444  3
   1501   1513   1525   1526     1  0.0000000  0.6508444  3
   1501   1513   1525   1527     1  0.0000000  0.6508444  3
   1502   1501   1500   1504     1  0.0000000  0.6508444  3
   1502   1501   1500   1507     1  0.0000000  0.6508444  3
   1502   1501   1500   1529     1  0.0000000  0.6508444  3
   1502   1501   1513   1525     1  0.0000000  0.6508444  3
   1502   1501   1513   1514     1  0.0000000  0.6508444  3
   1502   1501   1513   1515     1  0.0000000  0.6508444  3
   1503   1501   1500   1504     1  0.0000000  0.6508444  3
   1503   1501   1500   1507     1  0.0000000  0.6508444  3
   1503   1501   1500   1529     1  0.0000000  0.6508444  3
   1503   1501   1513   1525     1  0.0000000  0.6508444  3
   1503   1501   1513   1514     1  0.0000000  0.6508444  3
   1503   1501   1513   1515     1  0.0000000  0.6508444  3
   1504   1500   1507   1508     1  0.0000000  0.6508444  3
   1504   1500   1507   1509     1  0.0000000  0.6508444  3
   1504   1516   1522   1523     1  0.0000000  0.6508444  3
   1504   1516   1522   1524     1  0.0000000  0.6508444  3
   1505   1504   1500   1507     1  0.0000000  0.6508444  3
   1505   1504   1500   1529     1  0.0000000  0.6508444  3
   1505   1504   1516   1522     1  0.0000000  0.6508444  3
   1505   1504   1516   1517     1  0.0000000  0.6508444  3
   1505   1504   1516   1518     1  0.0000000  0.6508444  3
   1506   1504   1500   1507     1  0.0000000  0.6508444  3
   1506   1504   1500   1529     1  0.0000000  0.6508444  3
   1506   1504   1516   1522     1  0.0000000  0.6508444  3
   1506   1504   1516   1517     1  0.0000000  0.6508444  3
   1506   1504   1516   1518     1  0.0000000  0.6508444  3
   1507   1510   1519   1520     1  0.0000000  0.6508444  3
   1507   1510   1519   1521     1  0.0000000  0.6508444  3
   1508   1507   1500   1529     1  0.0000000  0.6508444  3
   1508   1507   1510   1519     1  0.0000000  0.6508444  3
   1508   1507   1510   1511     1  0.0000000  0.6508444  3
   1508   1507   1510   1512     1  0.0000000  0.6508444  3
   1509   1507   1500   1529     1  0.0000000  0.6508444  3
   1509   1507   1510   1519     1  0.0000000  0.6508444  3
   1509   1507   1510   1511     1  0.0000000  0.6508444  3
   1509   1507   1510   1512     1  0.0000000  0.6508444  3
   1510   1507   1500   1529     1  0.0000000  0.6508444  3
   1511   1510   1519   1528     1  0.0000000  1.0460000  1
   1511   1510   1519   1528     1  0.0000000  0.0000000  3
   1511   1510   1519   1520     1  0.0000000  0.6508444  3
   1511   1510   1519   1521     1  0.0000000  0.6508444  3
   1512   1510   1519   1528     1  0.0000000  1.0460000  1
   1512   1510   1519   1528     1  0.0000000  0.0000000  3
   1512   1510   1519   1520     1  0.0000000  0.6508444  3
   1512   1510   1519   1521     1  0.0000000  0.6508444  3
   1513   1501   1500   1529     1  0.0000000  0.6508444  3
   1514   1513   1525   2446     1  0.0000000  1.0460000  1
   1514   1513   1525   2446     1  0.0000000  0.0000000  3
   1514   1513   1525   1526     1  0.0000000  0.6508444  3
   1514   1513   1525   1527     1  0.0000000  0.6508444  3
   1515   1513   1525   2446     1  0.0000000  1.0460000  1
   1515   1513   1525   2446     1  0.0000000  0.0000000  3
   1515   1513   1525   1526     1  0.0000000  0.6508444  3
   1515   1513   1525   1527     1  0.0000000  0.6508444  3
   1516   1504   1500   1529     1  0.0000000  0.6508444  3
   1517   1516   1522   2432     1  0.0000000  1.0460000  1
   1517   1516   1522   2432     1  0.0000000  0.0000000  3
   1517   1516   1522   1523     1  0.0000000  0.6508444  3
   1517   1516   1522   1524     1  0.0000000  0.6508444  3
   1518   1516   1522   2432     1  0.0000000  1.0460000  1
   1518   1516   1522   2432     1  0.0000000  0.0000000  3
   1518   1516   1522   1523     1  0.0000000  0.6508444  3
   1518   1516   1522   1524     1  0.0000000  0.6508444  3
   1522   2432   2426   2427     1  0.0000000  1.6038667  3
   1522   2432   2426   2428     1  0.0000000  1.6038667  3
   1523   1522   2432   2426     1  0.0000000  1.6038667  3
   1524   1522   2432   2426     1  0.0000000  1.6038667  3
   1525   2446   2440   2441     1  0.0000000  1.6038667  3
   1525   2446   2440   2442     1  0.0000000  1.6038667  3
   1526   1525   2446   2440     1  0.0000000  1.6038667  3
   1527   1525   2446   2440     1  0.0000000  1.6038667  3
   1530   1531   1543   1544     1  0.0000000  0.6508444  3
   1530   1531   1543   1545     1  0.0000000  0.6508444  3
   1530   1534   1546   1547     1  0.0000000  0.6508444  3
   1530   1534   1546   1548     1  0.0000000  0.6508444  3
   1530   1537   1540   1541     1  0.0000000  0.6508444  3
   1530   1537   1540   1542     1  0.0000000  0.6508444  3
   1531   1530   1534   1535     1  0.0000000  0.6508444  3
   1531   1530   1534   1536     1  0.0000000  0.6508444  3
   1531   1530   1537   1538     1  0.0000000  0.6508444  3
   1531   1530   1537   1539     1  0.0000000  0.6508444  3
   1531   1543   1555   1556     1  0.0000000  0.6508444  3
   1531   1543   1555   1557     1  0.0000000  0.6508444  3
   1532   1531   1530   1534     1  0.0000000  0.6508444  3
   1532   1531   1530   1537     1  0.0000000  0.6508444  3
   1532   1531   1530   1559     1  0.0000000  0.6508444  3
   1532   1531   1543   1555     1  0.0000000  0.6508444  3
   1532   1531   1543   1544     1  0.0000000  0.6508444  3
   1532   1531   1543   1545     1  0.0000000  0.6508444  3
   1533   1531   1530   1534     1  0.0000000  0.6508444  3
   1533   1531   1530   1537     1  0.0000000  0.6508444  3
   1533   1531   1530   1559     1  0.0000000  0.6508444  3
   1533   1531   1543   1555     1  0.0000000  0.6508444  3
   1533   1531   1543   1544     1  0.0000000  0.6508444  3
   1533   1531   1543   1545     1  0.0000000  0.6508444  3
   1534   1530   1537   1538     1  0.0000000  0.6508444  3
   1534   1530   1537   1539     1  0.0000000  0.6508444  3
   1534   1546   1552   1553     1  0.0000000  0.6508444  3
   1534   1546   1552   1554     1  0.0000000  0.6508444  3
   1535   1534   1530   1537     1  0.0000000  0.6508444  3
   1535   1534   1530   1559     1  0.0000000  0.6508444  3
   1535   1534   1546   1552     1  0.0000000  0.6508444  3
   1535   1534   1546   1547     1  0.0000000  0.6508444  3
   1535   1534   1546   1548     1  0.0000000  0.6508444  3
   1536   1534   1530   1537     1  0.0000000  0.6508444  3
   1536   1534   1530   1559     1  0.0000000  0.6508444  3
   1536   1534   1546   1552     1  0.0000000  0.6508444  3
   1536   1534   1546   1547     1  0.0000000  0.6508444  3
   1536   1534   1546   1548     1  0.0000000  0.6508444  3
   1537   1540   1549   1550     1  0.0000000  0.6508444  3
   1537   1540   1549   1551     1  0.0000000  0.6508444  3
   1538   1537   1530   1559     1  0.0000000  0.6508444  3
   1538   1537   1540   1549     1  0.0000000  0.6508444  3
   1538   1537   1540   1541     1  0.0000000  0.6508444  3
   1538   1537   1540   1542     1  0.0000000  0.6508444  3
   1539   1537   1530   1559     1  0.0000000  0.6508444  3
   1539   1537   1540   1549     1  0.0000000  0.6508444  3
   1539   1537   1540   1541     1  0.0000000  0.6508444  3
   1539   1537   1540   1542     1  0.0000000  0.6508444  3
   1540   1537   1530   1559     1  0.0000000  0.6508444  3
   1541   1540   1549   1558     1  0.0000000  1.0460000  1
   1541   1540   1549   1558     1  0.0000000  0.0000000  3
   1541   1540   1549   1550     1  0.0000000  0.6508444  3
   1541   1540   1549   1551     1  0.0000000  0.6508444  3
   1542   1540   1549   1558     1  0.0000000  1.0460000  1
   1542   1540   1549   1558     1  0.0000000  0.0000000  3
   1542   1540   1549   1550     1  0.0000000  0.6508444  3
   1542   1540   1549   1551     1  0.0000000  0.6508444  3
   1543   1531   1530   1559     1  0.0000000  0.6508444  3
   1544   1543   1555   2474     1  0.0000000  1.0460000  1
   1544   1543   1555   2474     1  0.0000000  0.0000000  3
   1544   1543   1555   1556     1  0.0000000  0.6508444  3
   1544   1543   1555   1557     1  0.0000000  0.6508444  3
   1545   1543   1555   2474     1  0.0000000  1.0460000  1
   1545   1543   1555   2474     1  0.0000000  0.0000000  3
   1545   1543   1555   1556     1  0.0000000  0.6508444  3
   1545   1543   1555   1557     1  0.0000000  0.6508444  3
   1546   1534   1530   1559     1  0.0000000  0.6508444  3
   1547   1546   1552   2460     1  0.0000000  1.0460000  1
   1547   1546   1552   2460     1  0.0000000  0.0000000  3
   1547   1546   1552   1553     1  0.0000000  0.6508444  3
   1547   1546   1552   1554     1  0.0000000  0.6508444  3
   1548   1546   1552   2460     1  0.0000000  1.0460000  1
   1548   1546   1552   2460     1  0.0000000  0.0000000  3
   1548   1546   1552   1553     1  0.0000000  0.6508444  3
   1548   1546   1552   1554     1  0.0000000  0.6508444  3
   1552   2460   2454   2455     1  0.0000000  1.6038667  3
   1552   2460   2454   2456     1  0.0000000  1.6038667  3
   1553   1552   2460   2454     1  0.0000000  1.6038667  3
   1554   1552   2460   2454     1  0.0000000  1.6038667  3
   1555   2474   2468   2469     1  0.0000000  1.6038667  3
   1555   2474   2468   2470     1  0.0000000  1.6038667  3
   1556   1555   2474   2468     1  0.0000000  1.6038667  3
   1557   1555   2474   2468     1  0.0000000  1.6038667  3
   1560   1561   1573   1574     1  0.0000000  0.6508444  3
   1560   1561   1573   1575     1  0.0000000  0.6508444  3
   1560   1564   1576   1577     1  0.0000000  0.6508444  3
   1560   1564   1576   1578     1  0.0000000  0.6508444  3
   1560   1567   1570   1571     1  0.0000000  0.6508444  3
   1560   1567   1570   1572     1  0.0000000  0.6508444  3
   1561   1560   1564   1565     1  0.0000000  0.6508444  3
   1561   1560   1564   1566     1  0.0000000  0.6508444  3
   1561   1560   1567   1568     1  0.0000000  0.6508444  3
   1561   1560   1567   1569     1  0.0000000  0.6508444  3
   1561   1573   1585   1586     1  0.0000000  0.6508444  3
   1561   1573   1585   1587     1  0.0000000  0.6508444  3
   1562   1561   1560   1564     1  0.0000000  0.6508444  3
   1562   1561   1560   1567     1  0.0000000  0.6508444  3
   1562   1561   1560   1589     1  0.0000000  0.6508444  3
   1562   1561   1573   1585     1  0.0000000  0.6508444  3
   1562   1561   1573   1574     1  0.0000000  0.6508444  3
   1562   1561   1573   1575     1  0.0000000  0.6508444  3
   1563   1561   1560   1564     1  0.0000000  0.6508444  3
   1563   1561   1560   1567     1  0.0000000  0.6508444  3
   1563   1561   1560   1589     1  0.0000000  0.6508444  3
   1563   1561   1573   1585     1  0.0000000  0.6508444  3
   1563   1561   1573   1574     1  0.0000000  0.6508444  3
   1563   1561   1573   1575     1  0.0000000  0.6508444  3
   1564   1560   1567   1568     1  0.0000000  0.6508444  3
   1564   1560   1567   1569     1  0.0000000  0.6508444  3
   1564   1576   1582   1583     1  0.0000000  0.6508444  3
   1564   1576   1582   1584     1  0.0000000  0.6508444  3
   1565   1564   1560   1567     1  0.0000000  0.6508444  3
   1565   1564   1560   1589     1  0.0000000  0.6508444  3
   1565   1564   1576   1582     1  0.0000000  0.6508444  3
   1565   1564   1576   1577     1  0.0000000  0.6508444  3
   1565   1564   1576   1578     1  0.0000000  0.6508444  3
   1566   1564   1560   1567     1  0.0000000  0.6508444  3
   1566   1564   1560   1589     1  0.0000000  0.6508444  3
   1566   1564   1576   1582     1  0.0000000  0.6508444  3
   1566   1564   1576   1577     1  0.0000000  0.6508444  3
   1566   1564   1576   1578     1  0.0000000  0.6508444  3
   1567   1570   1579   1580     1  0.0000000  0.6508444  3
   1567   1570   1579   1581     1  0.0000000  0.6508444  3
   1568   1567   1560   1589     1  0.0000000  0.6508444  3
   1568   1567   1570   1579     1  0.0000000  0.6508444  3
   1568   1567   1570   1571     1  0.0000000  0.6508444  3
   1568   1567   1570   1572     1  0.0000000  0.6508444  3
   1569   1567   1560   1589     1  0.0000000  0.6508444  3
   1569   1567   1570   1579     1  0.0000000  0.6508444  3
   1569   1567   1570   1571     1  0.0000000  0.6508444  3
   1569   1567   1570   1572     1  0.0000000  0.6508444  3
   1570   1567   1560   1589     1  0.0000000  0.6508444  3
   1571   1570   1579   1588     1  0.0000000  1.0460000  1
   1571   1570   1579   1588     1  0.0000000  0.0000000  3
   1571   1570   1579   1580     1  0.0000000  0.6508444  3
   1571   1570   1579   1581     1  0.0000000  0.6508444  3
   1572   1570   1579   1588     1  0.0000000  1.0460000  1
   1572   1570   1579   1588     1  0.0000000  0.0000000  3
   1572   1570   1579   1580     1  0.0000000  0.6508444  3
   1572   1570   1579   1581     1  0.0000000  0.6508444  3
   1573   1561   1560   1589     1  0.0000000  0.6508444  3
   1574   1573   1585   2502     1  0.0000000  1.0460000  1
   1574   1573   1585   2502     1  0.0000000  0.0000000  3
   1574   1573   1585   1586     1  0.0000000  0.6508444  3
   1574   1573   1585   1587     1  0.0000000  0.6508444  3
   1575   1573   1585   2502     1  0.0000000  1.0460000  1
   1575   1573   1585   2502     1  0.0000000  0.0000000  3
   1575   1573   1585   1586     1  0.0000000  0.6508444  3
   1575   1573   1585   1587     1  0.0000000  0.6508444  3
   1576   1564   1560   1589     1  0.0000000  0.6508444  3
   1577   1576   1582   2488     1  0.0000000  1.0460000  1
   1577   1576   1582   2488     1  0.0000000  0.0000000  3
   1577   1576   1582   1583     1  0.0000000  0.6508444  3
   1577   1576   1582   1584     1  0.0000000  0.6508444  3
   1578   1576   1582   2488     1  0.0000000  1.0460000  1
   1578   1576   1582   2488     1  0.0000000  0.0000000  3
   1578   1576   1582   1583     1  0.0000000  0.6508444  3
   1578   1576   1582   1584     1  0.0000000  0.6508444  3
   1582   2488   2482   2483     1  0.0000000  1.6038667  3
   1582   2488   2482   2484     1  0.0000000  1.6038667  3
   1583   1582   2488   2482     1  0.0000000  1.6038667  3
   1584   1582   2488   2482     1  0.0000000  1.6038667  3
   1585   2502   2496   2497     1  0.0000000  1.6038667  3
   1585   2502   2496   2498     1  0.0000000  1.6038667  3
   1586   1585   2502   2496     1  0.0000000  1.6038667  3
   1587   1585   2502   2496     1  0.0000000  1.6038667  3
   1590   1591   1603   1604     1  0.0000000  0.6508444  3
   1590   1591   1603   1605     1  0.0000000  0.6508444  3
   1590   1594   1606   1607     1  0.0000000  0.6508444  3
   1590   1594   1606   1608     1  0.0000000  0.6508444  3
   1590   1597   1600   1601     1  0.0000000  0.6508444  3
   1590   1597   1600   1602     1  0.0000000  0.6508444  3
   1591   1590   1594   1595     1  0.0000000  0.6508444  3
   1591   1590   1594   1596     1  0.0000000  0.6508444  3
   1591   1590   1597   1598     1  0.0000000  0.6508444  3
   1591   1590   1597   1599     1  0.0000000  0.6508444  3
   1591   1603   1615   1616     1  0.0000000  0.6508444  3
   1591   1603   1615   1617     1  0.0000000  0.6508444  3
   1592   1591   1590   1594     1  0.0000000  0.6508444  3
   1592   1591   1590   1597     1  0.0000000  0.6508444  3
   1592   1591   1590   1619     1  0.0000000  0.6508444  3
   1592   1591   1603   1615     1  0.0000000  0.6508444  3
   1592   1591   1603   1604     1  0.0000000  0.6508444  3
   1592   1591   1603   1605     1  0.0000000  0.6508444  3
   1593   1591   1590   1594     1  0.0000000  0.6508444  3
   1593   1591   1590   1597     1  0.0000000  0.6508444  3
   1593   1591   1590   1619     1  0.0000000  0.6508444  3
   1593   1591   1603   1615     1  0.0000000  0.6508444  3
   1593   1591   1603   1604     1  0.0000000  0.6508444  3
   1593   1591   1603   1605     1  0.0000000  0.6508444  3
   1594   1590   1597   1598     1  0.0000000  0.6508444  3
   1594   1590   1597   1599     1  0.0000000  0.6508444  3
   1594   1606   1612   1613     1  0.0000000  0.6508444  3
   1594   1606   1612   1614     1  0.0000000  0.6508444  3
   1595   1594   1590   1597     1  0.0000000  0.6508444  3
   1595   1594   1590   1619     1  0.0000000  0.6508444  3
   1595   1594   1606   1612     1  0.0000000  0.6508444  3
   1595   1594   1606   1607     1  0.0000000  0.6508444  3
   1595   1594   1606   1608     1  0.0000000  0.6508444  3
   1596   1594   1590   1597     1  0.0000000  0.6508444  3
   1596   1594   1590   1619     1  0.0000000  0.6508444  3
   1596   1594   1606   1612     1  0.0000000  0.6508444  3
   1596   1594   1606   1607     1  0.0000000  0.6508444  3
   1596   1594   1606   1608     1  0.0000000  0.6508444  3
   1597   1600   1609   1610     1  0.0000000  0.6508444  3
   1597   1600   1609   1611     1  0.0000000  0.6508444  3
   1598   1597   1590   1619     1  0.0000000  0.6508444  3
   1598   1597   1600   1609     1  0.0000000  0.6508444  3
   1598   1597   1600   1601     1  0.0000000  0.6508444  3
   1598   1597   1600   1602     1  0.0000000  0.6508444  3
   1599   1597   1590   1619     1  0.0000000  0.6508444  3
   1599   1597   1600   1609     1  0.0000000  0.6508444  3
   1599   1597   1600   1601     1  0.0000000  0.6508444  3
   1599   1597   1600   1602     1  0.0000000  0.6508444  3
   1600   1597   1590   1619     1  0.0000000  0.6508444  3
   1601   1600   1609   1618     1  0.0000000  1.0460000  1
   1601   1600   1609   1618     1  0.0000000  0.0000000  3
   1601   1600   1609   1610     1  0.0000000  0.6508444  3
   1601   1600   1609   1611     1  0.0000000  0.6508444  3
   1602   1600   1609   1618     1  0.0000000  1.0460000  1
   1602   1600   1609   1618     1  0.0000000  0.0000000  3
   1602   1600   1609   1610     1  0.0000000  0.6508444  3
   1602   1600   1609   1611     1  0.0000000  0.6508444  3
   1603   1591   1590   1619     1  0.0000000  0.6508444  3
   1604   1603   1615   2530     1  0.0000000  1.0460000  1
   1604   1603   1615   2530     1  0.0000000  0.0000000  3
   1604   1603   1615   1616     1  0.0000000  0.6508444  3
   1604   1603   1615   1617     1  0.0000000  0.6508444  3
   1605   1603   1615   2530     1  0.0000000  1.0460000  1
   1605   1603   1615   2530     1  0.0000000  0.0000000  3
   1605   1603   1615   1616     1  0.0000000  0.6508444  3
   1605   1603   1615   1617     1  0.0000000  0.6508444  3
   1606   1594   1590   1619     1  0.0000000  0.6508444  3
   1607   1606   1612   2516     1  0.0000000  1.0460000  1
   1607   1606   1612   2516     1  0.0000000  0.0000000  3
   1607   1606   1612   1613     1  0.0000000  0.6508444  3
   1607   1606   1612   1614     1  0.0000000  0.6508444  3
   1608   1606   1612   2516     1  0.0000000  1.0460000  1
   1608   1606   1612   2516     1  0.0000000  0.0000000  3
   1608   1606   1612   1613     1  0.0000000  0.6508444  3
   1608   1606   1612   1614     1  0.0000000  0.6508444  3
   1612   2516   2510   2511     1  0.0000000  1.6038667  3
   1612   2516   2510   2512     1  0.0000000  1.6038667  3
   1613   1612   2516   2510     1  0.0000000  1.6038667  3
   1614   1612   2516   2510     1  0.0000000  1.6038667  3
   1615   2530   2524   2525     1  0.0000000  1.6038667  3
   1615   2530   2524   2526     1  0.0000000  1.6038667  3
   1616   1615   2530   2524     1  0.0000000  1.6038667  3
   1617   1615   2530   2524     1  0.0000000  1.6038667  3
   1620   1621   1633   1634     1  0.0000000  0.6508444  3
   1620   1621   1633   1635     1  0.0000000  0.6508444  3
   1620   1624   1636   1637     1  0.0000000  0.6508444  3
   1620   1624   1636   1638     1  0.0000000  0.6508444  3
   1620   1627   1630   1631     1  0.0000000  0.6508444  3
   1620   1627   1630   1632     1  0.0000000  0.6508444  3
   1621   1620   1624   1625     1  0.0000000  0.6508444  3
   1621   1620   1624   1626     1  0.0000000  0.6508444  3
   1621   1620   1627   1628     1  0.0000000  0.6508444  3
   1621   1620   1627   1629     1  0.0000000  0.6508444  3
   1621   1633   1645   1646     1  0.0000000  0.6508444  3
   1621   1633   1645   1647     1  0.0000000  0.6508444  3
   1622   1621   1620   1624     1  0.0000000  0.6508444  3
   1622   1621   1620   1627     1  0.0000000  0.6508444  3
   1622   1621   1620   1649     1  0.0000000  0.6508444  3
   1622   1621   1633   1645     1  0.0000000  0.6508444  3
   1622   1621   1633   1634     1  0.0000000  0.6508444  3
   1622   1621   1633   1635     1  0.0000000  0.6508444  3
   1623   1621   1620   1624     1  0.0000000  0.6508444  3
   1623   1621   1620   1627     1  0.0000000  0.6508444  3
   1623   1621   1620   1649     1  0.0000000  0.6508444  3
   1623   1621   1633   1645     1  0.0000000  0.6508444  3
   1623   1621   1633   1634     1  0.0000000  0.6508444  3
   1623   1621   1633   1635     1  0.0000000  0.6508444  3
   1624   1620   1627   1628     1  0.0000000  0.6508444  3
   1624   1620   1627   1629     1  0.0000000  0.6508444  3
   1624   1636   1642   1643     1  0.0000000  0.6508444  3
   1624   1636   1642   1644     1  0.0000000  0.6508444  3
   1625   1624   1620   1627     1  0.0000000  0.6508444  3
   1625   1624   1620   1649     1  0.0000000  0.6508444  3
   1625   1624   1636   1642     1  0.0000000  0.6508444  3
   1625   1624   1636   1637     1  0.0000000  0.6508444  3
   1625   1624   1636   1638     1  0.0000000  0.6508444  3
   1626   1624   1620   1627     1  0.0000000  0.6508444  3
   1626   1624   1620   1649     1  0.0000000  0.6508444  3
   1626   1624   1636   1642     1  0.0000000  0.6508444  3
   1626   1624   1636   1637     1  0.0000000  0.6508444  3
   1626   1624   1636   1638     1  0.0000000  0.6508444  3
   1627   1630   1639   1640     1  0.0000000  0.6508444  3
   1627   1630   1639   1641     1  0.0000000  0.6508444  3
   1628   1627   1620   1649     1  0.0000000  0.6508444  3
   1628   1627   1630   1639     1  0.0000000  0.6508444  3
   1628   1627   1630   1631     1  0.0000000  0.6508444  3
   1628   1627   1630   1632     1  0.0000000  0.6508444  3
   1629   1627   1620   1649     1  0.0000000  0.6508444  3
   1629   1627   1630   1639     1  0.0000000  0.6508444  3
   1629   1627   1630   1631     1  0.0000000  0.6508444  3
   1629   1627   1630   1632     1  0.0000000  0.6508444  3
   1630   1627   1620   1649     1  0.0000000  0.6508444  3
   1631   1630   1639   1648     1  0.0000000  1.0460000  1
   1631   1630   1639   1648     1  0.0000000  0.0000000  3
   1631   1630   1639   1640     1  0.0000000  0.6508444  3
   1631   1630   1639   1641     1  0.0000000  0.6508444  3
   1632   1630   1639   1648     1  0.0000000  1.0460000  1
   1632   1630   1639   1648     1  0.0000000  0.0000000  3
   1632   1630   1639   1640     1  0.0000000  0.6508444  3
   1632   1630   1639   1641     1  0.0000000  0.6508444  3
   1633   1621   1620   1649     1  0.0000000  0.6508444  3
   1634   1633   1645   2558     1  0.0000000  1.0460000  1
   1634   1633   1645   2558     1  0.0000000  0.0000000  3
   1634   1633   1645   1646     1  0.0000000  0.6508444  3
   1634   1633   1645   1647     1  0.0000000  0.6508444  3
   1635   1633   1645   2558     1  0.0000000  1.0460000  1
   1635   1633   1645   2558     1  0.0000000  0.0000000  3
   1635   1633   1645   1646     1  0.0000000  0.6508444  3
   1635   1633   1645   1647     1  0.0000000  0.6508444  3
   1636   1624   1620   1649     1  0.0000000  0.6508444  3
   1637   1636   1642   2544     1  0.0000000  1.0460000  1
   1637   1636   1642   2544     1  0.0000000  0.0000000  3
   1637   1636   1642   1643     1  0.0000000  0.6508444  3
   1637   1636   1642   1644     1  0.0000000  0.6508444  3
   1638   1636   1642   2544     1  0.0000000  1.0460000  1
   1638   1636   1642   2544     1  0.0000000  0.0000000  3
   1638   1636   1642   1643     1  0.0000000  0.6508444  3
   1638   1636   1642   1644     1  0.0000000  0.6508444  3
   1642   2544   2538   2539     1  0.0000000  1.6038667  3
   1642   2544   2538   2540     1  0.0000000  1.6038667  3
   1643   1642   2544   2538     1  0.0000000  1.6038667  3
   1644   1642   2544   2538     1  0.0000000  1.6038667  3
   1645   2558   2552   2553     1  0.0000000  1.6038667  3
   1645   2558   2552   2554     1  0.0000000  1.6038667  3
   1646   1645   2558   2552     1  0.0000000  1.6038667  3
   1647   1645   2558   2552     1  0.0000000  1.6038667  3
   1650   1651   1663   1664     1  0.0000000  0.6508444  3
   1650   1651   1663   1665     1  0.0000000  0.6508444  3
   1650   1654   1666   1667     1  0.0000000  0.6508444  3
   1650   1654   1666   1668     1  0.0000000  0.6508444  3
   1650   1657   1660   1661     1  0.0000000  0.6508444  3
   1650   1657   1660   1662     1  0.0000000  0.6508444  3
   1651   1650   1654   1655     1  0.0000000  0.6508444  3
   1651   1650   1654   1656     1  0.0000000  0.6508444  3
   1651   1650   1657   1658     1  0.0000000  0.6508444  3
   1651   1650   1657   1659     1  0.0000000  0.6508444  3
   1651   1663   1675   1676     1  0.0000000  0.6508444  3
   1651   1663   1675   1677     1  0.0000000  0.6508444  3
   1652   1651   1650   1654     1  0.0000000  0.6508444  3
   1652   1651   1650   1657     1  0.0000000  0.6508444  3
   1652   1651   1650   1679     1  0.0000000  0.6508444  3
   1652   1651   1663   1675     1  0.0000000  0.6508444  3
   1652   1651   1663   1664     1  0.0000000  0.6508444  3
   1652   1651   1663   1665     1  0.0000000  0.6508444  3
   1653   1651   1650   1654     1  0.0000000  0.6508444  3
   1653   1651   1650   1657     1  0.0000000  0.6508444  3
   1653   1651   1650   1679     1  0.0000000  0.6508444  3
   1653   1651   1663   1675     1  0.0000000  0.6508444  3
   1653   1651   1663   1664     1  0.0000000  0.6508444  3
   1653   1651   1663   1665     1  0.0000000  0.6508444  3
   1654   1650   1657   1658     1  0.0000000  0.6508444  3
   1654   1650   1657   1659     1  0.0000000  0.6508444  3
   1654   1666   1672   1673     1  0.0000000  0.6508444  3
   1654   1666   1672   1674     1  0.0000000  0.6508444  3
   1655   1654   1650   1657     1  0.0000000  0.6508444  3
   1655   1654   1650   1679     1  0.0000000  0.6508444  3
   1655   1654   1666   1672     1  0.0000000  0.6508444  3
   1655   1654   1666   1667     1  0.0000000  0.6508444  3
   1655   1654   1666   1668     1  0.0000000  0.6508444  3
   1656   1654   1650   1657     1  0.0000000  0.6508444  3
   1656   1654   1650   1679     1  0.0000000  0.6508444  3
   1656   1654   1666   1672     1  0.0000000  0.6508444  3
   1656   1654   1666   1667     1  0.0000000  0.6508444  3
   1656   1654   1666   1668     1  0.0000000  0.6508444  3
   1657   1660   1669   1670     1  0.0000000  0.6508444  3
   1657   1660   1669   1671     1  0.0000000  0.6508444  3
   1658   1657   1650   1679     1  0.0000000  0.6508444  3
   1658   1657   1660   1669     1  0.0000000  0.6508444  3
   1658   1657   1660   1661     1  0.0000000  0.6508444  3
   1658   1657   1660   1662     1  0.0000000  0.6508444  3
   1659   1657   1650   1679     1  0.0000000  0.6508444  3
   1659   1657   1660   1669     1  0.0000000  0.6508444  3
   1659   1657   1660   1661     1  0.0000000  0.6508444  3
   1659   1657   1660   1662     1  0.0000000  0.6508444  3
   1660   1657   1650   1679     1  0.0000000  0.6508444  3
   1661   1660   1669   1678     1  0.0000000  1.0460000  1
   1661   1660   1669   1678     1  0.0000000  0.0000000  3
   1661   1660   1669   1670     1  0.0000000  0.6508444  3
   1661   1660   1669   1671     1  0.0000000  0.6508444  3
   1662   1660   1669   1678     1  0.0000000  1.0460000  1
   1662   1660   1669   1678     1  0.0000000  0.0000000  3
   1662   1660   1669   1670     1  0.0000000  0.6508444  3
   1662   1660   1669   1671     1  0.0000000  0.6508444  3
   1663   1651   1650   1679     1  0.0000000  0.6508444  3
   1664   1663   1675   2586     1  0.0000000  1.0460000  1
   1664   1663   1675   2586     1  0.0000000  0.0000000  3
   1664   1663   1675   1676     1  0.0000000  0.6508444  3
   1664   1663   1675   1677     1  0.0000000  0.6508444  3
   1665   1663   1675   2586     1  0.0000000  1.0460000  1
   1665   1663   1675   2586     1  0.0000000  0.0000000  3
   1665   1663   1675   1676     1  0.0000000  0.6508444  3
   1665   1663   1675   1677     1  0.0000000  0.6508444  3
   1666   1654   1650   1679     1  0.0000000  0.6508444  3
   1667   1666   1672   2572     1  0.0000000  1.0460000  1
   1667   1666   1672   2572     1  0.0000000  0.0000000  3
   1667   1666   1672   1673     1  0.0000000  0.6508444  3
   1667   1666   1672   1674     1  0.0000000  0.6508444  3
   1668   1666   1672   2572     1  0.0000000  1.0460000  1
   1668   1666   1672   2572     1  0.0000000  0.0000000  3
   1668   1666   1672   1673     1  0.0000000  0.6508444  3
   1668   1666   1672   1674     1  0.0000000  0.6508444  3
   1672   2572   2566   2567     1  0.0000000  1.6038667  3
   1672   2572   2566   2568     1  0.0000000  1.6038667  3
   1673   1672   2572   2566     1  0.0000000  1.6038667  3
   1674   1672   2572   2566     1  0.0000000  1.6038667  3
   1675   2586   2580   2581     1  0.0000000  1.6038667  3
   1675   2586   2580   2582     1  0.0000000  1.6038667  3
   1676   1675   2586   2580     1  0.0000000  1.6038667  3
   1677   1675   2586   2580     1  0.0000000  1.6038667  3
   1680   1681   1693   1694     1  0.0000000  0.6508444  3
   1680   1681   1693   1695     1  0.0000000  0.6508444  3
   1680   1684   1696   1697     1  0.0000000  0.6508444  3
   1680   1684   1696   1698     1  0.0000000  0.6508444  3
   1680   1687   1690   1691     1  0.0000000  0.6508444  3
   1680   1687   1690   1692     1  0.0000000  0.6508444  3
   1681   1680   1684   1685     1  0.0000000  0.6508444  3
   1681   1680   1684   1686     1  0.0000000  0.6508444  3
   1681   1680   1687   1688     1  0.0000000  0.6508444  3
   1681   1680   1687   1689     1  0.0000000  0.6508444  3
   1681   1693   1705   1706     1  0.0000000  0.6508444  3
   1681   1693   1705   1707     1  0.0000000  0.6508444  3
   1682   1681   1680   1684     1  0.0000000  0.6508444  3
   1682   1681   1680   1687     1  0.0000000  0.6508444  3
   1682   1681   1680   1709     1  0.0000000  0.6508444  3
   1682   1681   1693   1705     1  0.0000000  0.6508444  3
   1682   1681   1693   1694     1  0.0000000  0.6508444  3
   1682   1681   1693   1695     1  0.0000000  0.6508444  3
   1683   1681   1680   1684     1  0.0000000  0.6508444  3
   1683   1681   1680   1687     1  0.0000000  0.6508444  3
   1683   1681   1680   1709     1  0.0000000  0.6508444  3
   1683   1681   1693   1705     1  0.0000000  0.6508444  3
   1683   1681   1693   1694     1  0.0000000  0.6508444  3
   1683   1681   1693   1695     1  0.0000000  0.6508444  3
   1684   1680   1687   1688     1  0.0000000  0.6508444  3
   1684   1680   1687   1689     1  0.0000000  0.6508444  3
   1684   1696   1702   1703     1  0.0000000  0.6508444  3
   1684   1696   1702   1704     1  0.0000000  0.6508444  3
   1685   1684   1680   1687     1  0.0000000  0.6508444  3
   1685   1684   1680   1709     1  0.0000000  0.6508444  3
   1685   1684   1696   1702     1  0.0000000  0.6508444  3
   1685   1684   1696   1697     1  0.0000000  0.6508444  3
   1685   1684   1696   1698     1  0.0000000  0.6508444  3
   1686   1684   1680   1687     1  0.0000000  0.6508444  3
   1686   1684   1680   1709     1  0.0000000  0.6508444  3
   1686   1684   1696   1702     1  0.0000000  0.6508444  3
   1686   1684   1696   1697     1  0.0000000  0.6508444  3
   1686   1684   1696   1698     1  0.0000000  0.6508444  3
   1687   1690   1699   1700     1  0.0000000  0.6508444  3
   1687   1690   1699   1701     1  0.0000000  0.6508444  3
   1688   1687   1680   1709     1  0.0000000  0.6508444  3
   1688   1687   1690   1699     1  0.0000000  0.6508444  3
   1688   1687   1690   1691     1  0.0000000  0.6508444  3
   1688   1687   1690   1692     1  0.0000000  0.6508444  3
   1689   1687   1680   1709     1  0.0000000  0.6508444  3
   1689   1687   1690   1699     1  0.0000000  0.6508444  3
   1689   1687   1690   1691     1  0.0000000  0.6508444  3
   1689   1687   1690   1692     1  0.0000000  0.6508444  3
   1690   1687   1680   1709     1  0.0000000  0.6508444  3
   1691   1690   1699   1708     1  0.0000000  1.0460000  1
   1691   1690   1699   1708     1  0.0000000  0.0000000  3
   1691   1690   1699   1700     1  0.0000000  0.6508444  3
   1691   1690   1699   1701     1  0.0000000  0.6508444  3
   1692   1690   1699   1708     1  0.0000000  1.0460000  1
   1692   1690   1699   1708     1  0.0000000  0.0000000  3
   1692   1690   1699   1700     1  0.0000000  0.6508444  3
   1692   1690   1699   1701     1  0.0000000  0.6508444  3
   1693   1681   1680   1709     1  0.0000000  0.6508444  3
   1694   1693   1705   2614     1  0.0000000  1.0460000  1
   1694   1693   1705   2614     1  0.0000000  0.0000000  3
   1694   1693   1705   1706     1  0.0000000  0.6508444  3
   1694   1693   1705   1707     1  0.0000000  0.6508444  3
   1695   1693   1705   2614     1  0.0000000  1.0460000  1
   1695   1693   1705   2614     1  0.0000000  0.0000000  3
   1695   1693   1705   1706     1  0.0000000  0.6508444  3
   1695   1693   1705   1707     1  0.0000000  0.6508444  3
   1696   1684   1680   1709     1  0.0000000  0.6508444  3
   1697   1696   1702   2600     1  0.0000000  1.0460000  1
   1697   1696   1702   2600     1  0.0000000  0.0000000  3
   1697   1696   1702   1703     1  0.0000000  0.6508444  3
   1697   1696   1702   1704     1  0.0000000  0.6508444  3
   1698   1696   1702   2600     1  0.0000000  1.0460000  1
   1698   1696   1702   2600     1  0.0000000  0.0000000  3
   1698   1696   1702   1703     1  0.0000000  0.6508444  3
   1698   1696   1702   1704     1  0.0000000  0.6508444  3
   1702   2600   2594   2595     1  0.0000000  1.6038667  3
   1702   2600   2594   2596     1  0.0000000  1.6038667  3
   1703   1702   2600   2594     1  0.0000000  1.6038667  3
   1704   1702   2600   2594     1  0.0000000  1.6038667  3
   1705   2614   2608   2609     1  0.0000000  1.6038667  3
   1705   2614   2608   2610     1  0.0000000  1.6038667  3
   1706   1705   2614   2608     1  0.0000000  1.6038667  3
   1707   1705   2614   2608     1  0.0000000  1.6038667  3
   1710   1711   1723   1724     1  0.0000000  0.6508444  3
   1710   1711   1723   1725     1  0.0000000  0.6508444  3
   1710   1714   1726   1727     1  0.0000000  0.6508444  3
   1710   1714   1726   1728     1  0.0000000  0.6508444  3
   1710   1717   1720   1721     1  0.0000000  0.6508444  3
   1710   1717   1720   1722     1  0.0000000  0.6508444  3
   1711   1710   1714   1715     1  0.0000000  0.6508444  3
   1711   1710   1714   1716     1  0.0000000  0.6508444  3
   1711   1710   1717   1718     1  0.0000000  0.6508444  3
   1711   1710   1717   1719     1  0.0000000  0.6508444  3
   1711   1723   1735   1736     1  0.0000000  0.6508444  3
   1711   1723   1735   1737     1  0.0000000  0.6508444  3
   1712   1711   1710   1714     1  0.0000000  0.6508444  3
   1712   1711   1710   1717     1  0.0000000  0.6508444  3
   1712   1711   1710   1739     1  0.0000000  0.6508444  3
   1712   1711   1723   1735     1  0.0000000  0.6508444  3
   1712   1711   1723   1724     1  0.0000000  0.6508444  3
   1712   1711   1723   1725     1  0.0000000  0.6508444  3
   1713   1711   1710   1714     1  0.0000000  0.6508444  3
   1713   1711   1710   1717     1  0.0000000  0.6508444  3
   1713   1711   1710   1739     1  0.0000000  0.6508444  3
   1713   1711   1723   1735     1  0.0000000  0.6508444  3
   1713   1711   1723   1724     1  0.0000000  0.6508444  3
   1713   1711   1723   1725     1  0.0000000  0.6508444  3
   1714   1710   1717   1718     1  0.0000000  0.6508444  3
   1714   1710   1717   1719     1  0.0000000  0.6508444  3
   1714   1726   1732   1733     1  0.0000000  0.6508444  3
   1714   1726   1732   1734     1  0.0000000  0.6508444  3
   1715   1714   1710   1717     1  0.0000000  0.6508444  3
   1715   1714   1710   1739     1  0.0000000  0.6508444  3
   1715   1714   1726   1732     1  0.0000000  0.6508444  3
   1715   1714   1726   1727     1  0.0000000  0.6508444  3
   1715   1714   1726   1728     1  0.0000000  0.6508444  3
   1716   1714   1710   1717     1  0.0000000  0.6508444  3
   1716   1714   1710   1739     1  0.0000000  0.6508444  3
   1716   1714   1726   1732     1  0.0000000  0.6508444  3
   1716   1714   1726   1727     1  0.0000000  0.6508444  3
   1716   1714   1726   1728     1  0.0000000  0.6508444  3
   1717   1720   1729   1730     1  0.0000000  0.6508444  3
   1717   1720   1729   1731     1  0.0000000  0.6508444  3
   1718   1717   1710   1739     1  0.0000000  0.6508444  3
   1718   1717   1720   1729     1  0.0000000  0.6508444  3
   1718   1717   1720   1721     1  0.0000000  0.6508444  3
   1718   1717   1720   1722     1  0.0000000  0.6508444  3
   1719   1717   1710   1739     1  0.0000000  0.6508444  3
   1719   1717   1720   1729     1  0.0000000  0.6508444  3
   1719   1717   1720   1721     1  0.0000000  0.6508444  3
   1719   1717   1720   1722     1  0.0000000  0.6508444  3
   1720   1717   1710   1739     1  0.0000000  0.6508444  3
   1721   1720   1729   1738     1  0.0000000  1.0460000  1
   1721   1720   1729   1738     1  0.0000000  0.0000000  3
   1721   1720   1729   1730     1  0.0000000  0.6508444  3
   1721   1720   1729   1731     1  0.0000000  0.6508444  3
   1722   1720   1729   1738     1  0.0000000  1.0460000  1
   1722   1720   1729   1738     1  0.0000000  0.0000000  3
   1722   1720   1729   1730     1  0.0000000  0.6508444  3
   1722   1720   1729   1731     1  0.0000000  0.6508444  3
   1723   1711   1710   1739     1  0.0000000  0.6508444  3
   1724   1723   1735   2642     1  0.0000000  1.0460000  1
   1724   1723   1735   2642     1  0.0000000  0.0000000  3
   1724   1723   1735   1736     1  0.0000000  0.6508444  3
   1724   1723   1735   1737     1  0.0000000  0.6508444  3
   1725   1723   1735   2642     1  0.0000000  1.0460000  1
   1725   1723   1735   2642     1  0.0000000  0.0000000  3
   1725   1723   1735   1736     1  0.0000000  0.6508444  3
   1725   1723   1735   1737     1  0.0000000  0.6508444  3
   1726   1714   1710   1739     1  0.0000000  0.6508444  3
   1727   1726   1732   2628     1  0.0000000  1.0460000  1
   1727   1726   1732   2628     1  0.0000000  0.0000000  3
   1727   1726   1732   1733     1  0.0000000  0.6508444  3
   1727   1726   1732   1734     1  0.0000000  0.6508444  3
   1728   1726   1732   2628     1  0.0000000  1.0460000  1
   1728   1726   1732   2628     1  0.0000000  0.0000000  3
   1728   1726   1732   1733     1  0.0000000  0.6508444  3
   1728   1726   1732   1734     1  0.0000000  0.6508444  3
   1732   2628   2622   2623     1  0.0000000  1.6038667  3
   1732   2628   2622   2624     1  0.0000000  1.6038667  3
   1733   1732   2628   2622     1  0.0000000  1.6038667  3
   1734   1732   2628   2622     1  0.0000000  1.6038667  3
   1735   2642   2636   2637     1  0.0000000  1.6038667  3
   1735   2642   2636   2638     1  0.0000000  1.6038667  3
   1736   1735   2642   2636     1  0.0000000  1.6038667  3
   1737   1735   2642   2636     1  0.0000000  1.6038667  3
   1740   1741   1753   1754     1  0.0000000  0.6508444  3
   1740   1741   1753   1755     1  0.0000000  0.6508444  3
   1740   1744   1756   1757     1  0.0000000  0.6508444  3
   1740   1744   1756   1758     1  0.0000000  0.6508444  3
   1740   1747   1750   1751     1  0.0000000  0.6508444  3
   1740   1747   1750   1752     1  0.0000000  0.6508444  3
   1741   1740   1744   1745     1  0.0000000  0.6508444  3
   1741   1740   1744   1746     1  0.0000000  0.6508444  3
   1741   1740   1747   1748     1  0.0000000  0.6508444  3
   1741   1740   1747   1749     1  0.0000000  0.6508444  3
   1741   1753   1765   1766     1  0.0000000  0.6508444  3
   1741   1753   1765   1767     1  0.0000000  0.6508444  3
   1742   1741   1740   1744     1  0.0000000  0.6508444  3
   1742   1741   1740   1747     1  0.0000000  0.6508444  3
   1742   1741   1740   1769     1  0.0000000  0.6508444  3
   1742   1741   1753   1765     1  0.0000000  0.6508444  3
   1742   1741   1753   1754     1  0.0000000  0.6508444  3
   1742   1741   1753   1755     1  0.0000000  0.6508444  3
   1743   1741   1740   1744     1  0.0000000  0.6508444  3
   1743   1741   1740   1747     1  0.0000000  0.6508444  3
   1743   1741   1740   1769     1  0.0000000  0.6508444  3
   1743   1741   1753   1765     1  0.0000000  0.6508444  3
   1743   1741   1753   1754     1  0.0000000  0.6508444  3
   1743   1741   1753   1755     1  0.0000000  0.6508444  3
   1744   1740   1747   1748     1  0.0000000  0.6508444  3
   1744   1740   1747   1749     1  0.0000000  0.6508444  3
   1744   1756   1762   1763     1  0.0000000  0.6508444  3
   1744   1756   1762   1764     1  0.0000000  0.6508444  3
   1745   1744   1740   1747     1  0.0000000  0.6508444  3
   1745   1744   1740   1769     1  0.0000000  0.6508444  3
   1745   1744   1756   1762     1  0.0000000  0.6508444  3
   1745   1744   1756   1757     1  0.0000000  0.6508444  3
   1745   1744   1756   1758     1  0.0000000  0.6508444  3
   1746   1744   1740   1747     1  0.0000000  0.6508444  3
   1746   1744   1740   1769     1  0.0000000  0.6508444  3
   1746   1744   1756   1762     1  0.0000000  0.6508444  3
   1746   1744   1756   1757     1  0.0000000  0.6508444  3
   1746   1744   1756   1758     1  0.0000000  0.6508444  3
   1747   1750   1759   1760     1  0.0000000  0.6508444  3
   1747   1750   1759   1761     1  0.0000000  0.6508444  3
   1748   1747   1740   1769     1  0.0000000  0.6508444  3
   1748   1747   1750   1759     1  0.0000000  0.6508444  3
   1748   1747   1750   1751     1  0.0000000  0.6508444  3
   1748   1747   1750   1752     1  0.0000000  0.6508444  3
   1749   1747   1740   1769     1  0.0000000  0.6508444  3
   1749   1747   1750   1759     1  0.0000000  0.6508444  3
   1749   1747   1750   1751     1  0.0000000  0.6508444  3
   1749   1747   1750   1752     1  0.0000000  0.6508444  3
   1750   1747   1740   1769     1  0.0000000  0.6508444  3
   1751   1750   1759   1768     1  0.0000000  1.0460000  1
   1751   1750   1759   1768     1  0.0000000  0.0000000  3
   1751   1750   1759   1760     1  0.0000000  0.6508444  3
   1751   1750   1759   1761     1  0.0000000  0.6508444  3
   1752   1750   1759   1768     1  0.0000000  1.0460000  1
   1752   1750   1759   1768     1  0.0000000  0.0000000  3
   1752   1750   1759   1760     1  0.0000000  0.6508444  3
   1752   1750   1759   1761     1  0.0000000  0.6508444  3
   1753   1741   1740   1769     1  0.0000000  0.6508444  3
   1754   1753   1765   2670     1  0.0000000  1.0460000  1
   1754   1753   1765   2670     1  0.0000000  0.0000000  3
   1754   1753   1765   1766     1  0.0000000  0.6508444  3
   1754   1753   1765   1767     1  0.0000000  0.6508444  3
   1755   1753   1765   2670     1  0.0000000  1.0460000  1
   1755   1753   1765   2670     1  0.0000000  0.0000000  3
   1755   1753   1765   1766     1  0.0000000  0.6508444  3
   1755   1753   1765   1767     1  0.0000000  0.6508444  3
   1756   1744   1740   1769     1  0.0000000  0.6508444  3
   1757   1756   1762   2656     1  0.0000000  1.0460000  1
   1757   1756   1762   2656     1  0.0000000  0.0000000  3
   1757   1756   1762   1763     1  0.0000000  0.6508444  3
   1757   1756   1762   1764     1  0.0000000  0.6508444  3
   1758   1756   1762   2656     1  0.0000000  1.0460000  1
   1758   1756   1762   2656     1  0.0000000  0.0000000  3
   1758   1756   1762   1763     1  0.0000000  0.6508444  3
   1758   1756   1762   1764     1  0.0000000  0.6508444  3
   1762   2656   2650   2651     1  0.0000000  1.6038667  3
   1762   2656   2650   2652     1  0.0000000  1.6038667  3
   1763   1762   2656   2650     1  0.0000000  1.6038667  3
   1764   1762   2656   2650     1  0.0000000  1.6038667  3
   1765   2670   2664   2665     1  0.0000000  1.6038667  3
   1765   2670   2664   2666     1  0.0000000  1.6038667  3
   1766   1765   2670   2664     1  0.0000000  1.6038667  3
   1767   1765   2670   2664     1  0.0000000  1.6038667  3
   1770   1771   1783   1784     1  0.0000000  0.6508444  3
   1770   1771   1783   1785     1  0.0000000  0.6508444  3
   1770   1774   1786   1787     1  0.0000000  0.6508444  3
   1770   1774   1786   1788     1  0.0000000  0.6508444  3
   1770   1777   1780   1781     1  0.0000000  0.6508444  3
   1770   1777   1780   1782     1  0.0000000  0.6508444  3
   1771   1770   1774   1775     1  0.0000000  0.6508444  3
   1771   1770   1774   1776     1  0.0000000  0.6508444  3
   1771   1770   1777   1778     1  0.0000000  0.6508444  3
   1771   1770   1777   1779     1  0.0000000  0.6508444  3
   1771   1783   1795   1796     1  0.0000000  0.6508444  3
   1771   1783   1795   1797     1  0.0000000  0.6508444  3
   1772   1771   1770   1774     1  0.0000000  0.6508444  3
   1772   1771   1770   1777     1  0.0000000  0.6508444  3
   1772   1771   1770   1799     1  0.0000000  0.6508444  3
   1772   1771   1783   1795     1  0.0000000  0.6508444  3
   1772   1771   1783   1784     1  0.0000000  0.6508444  3
   1772   1771   1783   1785     1  0.0000000  0.6508444  3
   1773   1771   1770   1774     1  0.0000000  0.6508444  3
   1773   1771   1770   1777     1  0.0000000  0.6508444  3
   1773   1771   1770   1799     1  0.0000000  0.6508444  3
   1773   1771   1783   1795     1  0.0000000  0.6508444  3
   1773   1771   1783   1784     1  0.0000000  0.6508444  3
   1773   1771   1783   1785     1  0.0000000  0.6508444  3
   1774   1770   1777   1778     1  0.0000000  0.6508444  3
   1774   1770   1777   1779     1  0.0000000  0.6508444  3
   1774   1786   1792   1793     1  0.0000000  0.6508444  3
   1774   1786   1792   1794     1  0.0000000  0.6508444  3
   1775   1774   1770   1777     1  0.0000000  0.6508444  3
   1775   1774   1770   1799     1  0.0000000  0.6508444  3
   1775   1774   1786   1792     1  0.0000000  0.6508444  3
   1775   1774   1786   1787     1  0.0000000  0.6508444  3
   1775   1774   1786   1788     1  0.0000000  0.6508444  3
   1776   1774   1770   1777     1  0.0000000  0.6508444  3
   1776   1774   1770   1799     1  0.0000000  0.6508444  3
   1776   1774   1786   1792     1  0.0000000  0.6508444  3
   1776   1774   1786   1787     1  0.0000000  0.6508444  3
   1776   1774   1786   1788     1  0.0000000  0.6508444  3
   1777   1780   1789   1790     1  0.0000000  0.6508444  3
   1777   1780   1789   1791     1  0.0000000  0.6508444  3
   1778   1777   1770   1799     1  0.0000000  0.6508444  3
   1778   1777   1780   1789     1  0.0000000  0.6508444  3
   1778   1777   1780   1781     1  0.0000000  0.6508444  3
   1778   1777   1780   1782     1  0.0000000  0.6508444  3
   1779   1777   1770   1799     1  0.0000000  0.6508444  3
   1779   1777   1780   1789     1  0.0000000  0.6508444  3
   1779   1777   1780   1781     1  0.0000000  0.6508444  3
   1779   1777   1780   1782     1  0.0000000  0.6508444  3
   1780   1777   1770   1799     1  0.0000000  0.6508444  3
   1781   1780   1789   1798     1  0.0000000  1.0460000  1
   1781   1780   1789   1798     1  0.0000000  0.0000000  3
   1781   1780   1789   1790     1  0.0000000  0.6508444  3
   1781   1780   1789   1791     1  0.0000000  0.6508444  3
   1782   1780   1789   1798     1  0.0000000  1.0460000  1
   1782   1780   1789   1798     1  0.0000000  0.0000000  3
   1782   1780   1789   1790     1  0.0000000  0.6508444  3
   1782   1780   1789   1791     1  0.0000000  0.6508444  3
   1783   1771   1770   1799     1  0.0000000  0.6508444  3
   1784   1783   1795   2698     1  0.0000000  1.0460000  1
   1784   1783   1795   2698     1  0.0000000  0.0000000  3
   1784   1783   1795   1796     1  0.0000000  0.6508444  3
   1784   1783   1795   1797     1  0.0000000  0.6508444  3
   1785   1783   1795   2698     1  0.0000000  1.0460000  1
   1785   1783   1795   2698     1  0.0000000  0.0000000  3
   1785   1783   1795   1796     1  0.0000000  0.6508444  3
   1785   1783   1795   1797     1  0.0000000  0.6508444  3
   1786   1774   1770   1799     1  0.0000000  0.6508444  3
   1787   1786   1792   2684     1  0.0000000  1.0460000  1
   1787   1786   1792   2684     1  0.0000000  0.0000000  3
   1787   1786   1792   1793     1  0.0000000  0.6508444  3
   1787   1786   1792   1794     1  0.0000000  0.6508444  3
   1788   1786   1792   2684     1  0.0000000  1.0460000  1
   1788   1786   1792   2684     1  0.0000000  0.0000000  3
   1788   1786   1792   1793     1  0.0000000  0.6508444  3
   1788   1786   1792   1794     1  0.0000000  0.6508444  3
   1792   2684   2678   2679     1  0.0000000  1.6038667  3
   1792   2684   2678   2680     1  0.0000000  1.6038667  3
   1793   1792   2684   2678     1  0.0000000  1.6038667  3
   1794   1792   2684   2678     1  0.0000000  1.6038667  3
   1795   2698   2692   2693     1  0.0000000  1.6038667  3
   1795   2698   2692   2694     1  0.0000000  1.6038667  3
   1796   1795   2698   2692     1  0.0000000  1.6038667  3
   1797   1795   2698   2692     1  0.0000000  1.6038667  3
   1800   1801   1813   1814     1  0.0000000  0.6508444  3
   1800   1801   1813   1815     1  0.0000000  0.6508444  3
   1800   1804   1816   1817     1  0.0000000  0.6508444  3
   1800   1804   1816   1818     1  0.0000000  0.6508444  3
   1800   1807   1810   1811     1  0.0000000  0.6508444  3
   1800   1807   1810   1812     1  0.0000000  0.6508444  3
   1801   1800   1804   1805     1  0.0000000  0.6508444  3
   1801   1800   1804   1806     1  0.0000000  0.6508444  3
   1801   1800   1807   1808     1  0.0000000  0.6508444  3
   1801   1800   1807   1809     1  0.0000000  0.6508444  3
   1801   1813   1825   1826     1  0.0000000  0.6508444  3
   1801   1813   1825   1827     1  0.0000000  0.6508444  3
   1802   1801   1800   1804     1  0.0000000  0.6508444  3
   1802   1801   1800   1807     1  0.0000000  0.6508444  3
   1802   1801   1800   1829     1  0.0000000  0.6508444  3
   1802   1801   1813   1825     1  0.0000000  0.6508444  3
   1802   1801   1813   1814     1  0.0000000  0.6508444  3
   1802   1801   1813   1815     1  0.0000000  0.6508444  3
   1803   1801   1800   1804     1  0.0000000  0.6508444  3
   1803   1801   1800   1807     1  0.0000000  0.6508444  3
   1803   1801   1800   1829     1  0.0000000  0.6508444  3
   1803   1801   1813   1825     1  0.0000000  0.6508444  3
   1803   1801   1813   1814     1  0.0000000  0.6508444  3
   1803   1801   1813   1815     1  0.0000000  0.6508444  3
   1804   1800   1807   1808     1  0.0000000  0.6508444  3
   1804   1800   1807   1809     1  0.0000000  0.6508444  3
   1804   1816   1822   1823     1  0.0000000  0.6508444  3
   1804   1816   1822   1824     1  0.0000000  0.6508444  3
   1805   1804   1800   1807     1  0.0000000  0.6508444  3
   1805   1804   1800   1829     1  0.0000000  0.6508444  3
   1805   1804   1816   1822     1  0.0000000  0.6508444  3
   1805   1804   1816   1817     1  0.0000000  0.6508444  3
   1805   1804   1816   1818     1  0.0000000  0.6508444  3
   1806   1804   1800   1807     1  0.0000000  0.6508444  3
   1806   1804   1800   1829     1  0.0000000  0.6508444  3
   1806   1804   1816   1822     1  0.0000000  0.6508444  3
   1806   1804   1816   1817     1  0.0000000  0.6508444  3
   1806   1804   1816   1818     1  0.0000000  0.6508444  3
   1807   1810   1819   1820     1  0.0000000  0.6508444  3
   1807   1810   1819   1821     1  0.0000000  0.6508444  3
   1808   1807   1800   1829     1  0.0000000  0.6508444  3
   1808   1807   1810   1819     1  0.0000000  0.6508444  3
   1808   1807   1810   1811     1  0.0000000  0.6508444  3
   1808   1807   1810   1812     1  0.0000000  0.6508444  3
   1809   1807   1800   1829     1  0.0000000  0.6508444  3
   1809   1807   1810   1819     1  0.0000000  0.6508444  3
   1809   1807   1810   1811     1  0.0000000  0.6508444  3
   1809   1807   1810   1812     1  0.0000000  0.6508444  3
   1810   1807   1800   1829     1  0.0000000  0.6508444  3
   1811   1810   1819   1828     1  0.0000000  1.0460000  1
   1811   1810   1819   1828     1  0.0000000  0.0000000  3
   1811   1810   1819   1820     1  0.0000000  0.6508444  3
   1811   1810   1819   1821     1  0.0000000  0.6508444  3
   1812   1810   1819   1828     1  0.0000000  1.0460000  1
   1812   1810   1819   1828     1  0.0000000  0.0000000  3
   1812   1810   1819   1820     1  0.0000000  0.6508444  3
   1812   1810   1819   1821     1  0.0000000  0.6508444  3
   1813   1801   1800   1829     1  0.0000000  0.6508444  3
   1814   1813   1825   2726     1  0.0000000  1.0460000  1
   1814   1813   1825   2726     1  0.0000000  0.0000000  3
   1814   1813   1825   1826     1  0.0000000  0.6508444  3
   1814   1813   1825   1827     1  0.0000000  0.6508444  3
   1815   1813   1825   2726     1  0.0000000  1.0460000  1
   1815   1813   1825   2726     1  0.0000000  0.0000000  3
   1815   1813   1825   1826     1  0.0000000  0.6508444  3
   1815   1813   1825   1827     1  0.0000000  0.6508444  3
   1816   1804   1800   1829     1  0.0000000  0.6508444  3
   1817   1816   1822   2712     1  0.0000000  1.0460000  1
   1817   1816   1822   2712     1  0.0000000  0.0000000  3
   1817   1816   1822   1823     1  0.0000000  0.6508444  3
   1817   1816   1822   1824     1  0.0000000  0.6508444  3
   1818   1816   1822   2712     1  0.0000000  1.0460000  1
   1818   1816   1822   2712     1  0.0000000  0.0000000  3
   1818   1816   1822   1823     1  0.0000000  0.6508444  3
   1818   1816   1822   1824     1  0.0000000  0.6508444  3
   1822   2712   2706   2707     1  0.0000000  1.6038667  3
   1822   2712   2706   2708     1  0.0000000  1.6038667  3
   1823   1822   2712   2706     1  0.0000000  1.6038667  3
   1824   1822   2712   2706     1  0.0000000  1.6038667  3
   1825   2726   2720   2721     1  0.0000000  1.6038667  3
   1825   2726   2720   2722     1  0.0000000  1.6038667  3
   1826   1825   2726   2720     1  0.0000000  1.6038667  3
   1827   1825   2726   2720     1  0.0000000  1.6038667  3
   1830   1831   1843   1844     1  0.0000000  0.6508444  3
   1830   1831   1843   1845     1  0.0000000  0.6508444  3
   1830   1834   1846   1847     1  0.0000000  0.6508444  3
   1830   1834   1846   1848     1  0.0000000  0.6508444  3
   1830   1837   1840   1841     1  0.0000000  0.6508444  3
   1830   1837   1840   1842     1  0.0000000  0.6508444  3
   1831   1830   1834   1835     1  0.0000000  0.6508444  3
   1831   1830   1834   1836     1  0.0000000  0.6508444  3
   1831   1830   1837   1838     1  0.0000000  0.6508444  3
   1831   1830   1837   1839     1  0.0000000  0.6508444  3
   1831   1843   1855   1856     1  0.0000000  0.6508444  3
   1831   1843   1855   1857     1  0.0000000  0.6508444  3
   1832   1831   1830   1834     1  0.0000000  0.6508444  3
   1832   1831   1830   1837     1  0.0000000  0.6508444  3
   1832   1831   1830   1859     1  0.0000000  0.6508444  3
   1832   1831   1843   1855     1  0.0000000  0.6508444  3
   1832   1831   1843   1844     1  0.0000000  0.6508444  3
   1832   1831   1843   1845     1  0.0000000  0.6508444  3
   1833   1831   1830   1834     1  0.0000000  0.6508444  3
   1833   1831   1830   1837     1  0.0000000  0.6508444  3
   1833   1831   1830   1859     1  0.0000000  0.6508444  3
   1833   1831   1843   1855     1  0.0000000  0.6508444  3
   1833   1831   1843   1844     1  0.0000000  0.6508444  3
   1833   1831   1843   1845     1  0.0000000  0.6508444  3
   1834   1830   1837   1838     1  0.0000000  0.6508444  3
   1834   1830   1837   1839     1  0.0000000  0.6508444  3
   1834   1846   1852   1853     1  0.0000000  0.6508444  3
   1834   1846   1852   1854     1  0.0000000  0.6508444  3
   1835   1834   1830   1837     1  0.0000000  0.6508444  3
   1835   1834   1830   1859     1  0.0000000  0.6508444  3
   1835   1834   1846   1852     1  0.0000000  0.6508444  3
   1835   1834   1846   1847     1  0.0000000  0.6508444  3
   1835   1834   1846   1848     1  0.0000000  0.6508444  3
   1836   1834   1830   1837     1  0.0000000  0.6508444  3
   1836   1834   1830   1859     1  0.0000000  0.6508444  3
   1836   1834   1846   1852     1  0.0000000  0.6508444  3
   1836   1834   1846   1847     1  0.0000000  0.6508444  3
   1836   1834   1846   1848     1  0.0000000  0.6508444  3
   1837   1840   1849   1850     1  0.0000000  0.6508444  3
   1837   1840   1849   1851     1  0.0000000  0.6508444  3
   1838   1837   1830   1859     1  0.0000000  0.6508444  3
   1838   1837   1840   1849     1  0.0000000  0.6508444  3
   1838   1837   1840   1841     1  0.0000000  0.6508444  3
   1838   1837   1840   1842     1  0.0000000  0.6508444  3
   1839   1837   1830   1859     1  0.0000000  0.6508444  3
   1839   1837   1840   1849     1  0.0000000  0.6508444  3
   1839   1837   1840   1841     1  0.0000000  0.6508444  3
   1839   1837   1840   1842     1  0.0000000  0.6508444  3
   1840   1837   1830   1859     1  0.0000000  0.6508444  3
   1841   1840   1849   1858     1  0.0000000  1.0460000  1
   1841   1840   1849   1858     1  0.0000000  0.0000000  3
   1841   1840   1849   1850     1  0.0000000  0.6508444  3
   1841   1840   1849   1851     1  0.0000000  0.6508444  3
   1842   1840   1849   1858     1  0.0000000  1.0460000  1
   1842   1840   1849   1858     1  0.0000000  0.0000000  3
   1842   1840   1849   1850     1  0.0000000  0.6508444  3
   1842   1840   1849   1851     1  0.0000000  0.6508444  3
   1843   1831   1830   1859     1  0.0000000  0.6508444  3
   1844   1843   1855   2754     1  0.0000000  1.0460000  1
   1844   1843   1855   2754     1  0.0000000  0.0000000  3
   1844   1843   1855   1856     1  0.0000000  0.6508444  3
   1844   1843   1855   1857     1  0.0000000  0.6508444  3
   1845   1843   1855   2754     1  0.0000000  1.0460000  1
   1845   1843   1855   2754     1  0.0000000  0.0000000  3
   1845   1843   1855   1856     1  0.0000000  0.6508444  3
   1845   1843   1855   1857     1  0.0000000  0.6508444  3
   1846   1834   1830   1859     1  0.0000000  0.6508444  3
   1847   1846   1852   2740     1  0.0000000  1.0460000  1
   1847   1846   1852   2740     1  0.0000000  0.0000000  3
   1847   1846   1852   1853     1  0.0000000  0.6508444  3
   1847   1846   1852   1854     1  0.0000000  0.6508444  3
   1848   1846   1852   2740     1  0.0000000  1.0460000  1
   1848   1846   1852   2740     1  0.0000000  0.0000000  3
   1848   1846   1852   1853     1  0.0000000  0.6508444  3
   1848   1846   1852   1854     1  0.0000000  0.6508444  3
   1852   2740   2734   2735     1  0.0000000  1.6038667  3
   1852   2740   2734   2736     1  0.0000000  1.6038667  3
   1853   1852   2740   2734     1  0.0000000  1.6038667  3
   1854   1852   2740   2734     1  0.0000000  1.6038667  3
   1855   2754   2748   2749     1  0.0000000  1.6038667  3
   1855   2754   2748   2750     1  0.0000000  1.6038667  3
   1856   1855   2754   2748     1  0.0000000  1.6038667  3
   1857   1855   2754   2748     1  0.0000000  1.6038667  3
   1860   1863   1866   1867     1  0.0000000  0.6508444  3
   1860   1863   1866   1868     1  0.0000000  0.6508444  3
   1861   1860   1863   1866     1  0.0000000  0.6508444  3
   1861   1860   1863   1864     1  0.0000000  0.6508444  3
   1861   1860   1863   1865     1  0.0000000  0.6508444  3
   1861   1860   1869   1870     1  0.0000000  0.6508444  3
   1861   1860   1869   1871     1  0.0000000  0.6508444  3
   1861   1860   1869   1873     1  0.0000000  0.6508444  3
   1862   1860   1863   1866     1  0.0000000  0.6508444  3
   1862   1860   1863   1864     1  0.0000000  0.6508444  3
   1862   1860   1863   1865     1  0.0000000  0.6508444  3
   1862   1860   1869   1870     1  0.0000000  0.6508444  3
   1862   1860   1869   1871     1  0.0000000  0.6508444  3
   1862   1860   1869   1873     1  0.0000000  0.6508444  3
   1863   1860   1869   1870     1  0.0000000  0.6508444  3
   1863   1860   1869   1871     1  0.0000000  0.6508444  3
   1863   1860   1869   1873     1  0.0000000  0.6508444  3
   1864   1863   1860   1869     1  0.0000000  0.6508444  3
   1864   1863   1866   1872     1  0.0000000  1.0460000  1
   1864   1863   1866   1872     1  0.0000000  0.0000000  3
   1864   1863   1866   1867     1  0.0000000  0.6508444  3
   1864   1863   1866   1868     1  0.0000000  0.6508444  3
   1865   1863   1860   1869     1  0.0000000  0.6508444  3
   1865   1863   1866   1872     1  0.0000000  1.0460000  1
   1865   1863   1866   1872     1  0.0000000  0.0000000  3
   1865   1863   1866   1867     1  0.0000000  0.6508444  3
   1865   1863   1866   1868     1  0.0000000  0.6508444  3
   1874   1877   1880   1881     1  0.0000000  0.6508444  3
   1874   1877   1880   1882     1  0.0000000  0.6508444  3
   1875   1874   1877   1880     1  0.0000000  0.6508444  3
   1875   1874   1877   1878     1  0.0000000  0.6508444  3
   1875   1874   1877   1879     1  0.0000000  0.6508444  3
   1875   1874   1883   1884     1  0.0000000  0.6508444  3
   1875   1874   1883   1885     1  0.0000000  0.6508444  3
   1875   1874   1883   1887     1  0.0000000  0.6508444  3
   1876   1874   1877   1880     1  0.0000000  0.6508444  3
   1876   1874   1877   1878     1  0.0000000  0.6508444  3
   1876   1874   1877   1879     1  0.0000000  0.6508444  3
   1876   1874   1883   1884     1  0.0000000  0.6508444  3
   1876   1874   1883   1885     1  0.0000000  0.6508444  3
   1876   1874   1883   1887     1  0.0000000  0.6508444  3
   1877   1874   1883   1884     1  0.0000000  0.6508444  3
   1877   1874   1883   1885     1  0.0000000  0.6508444  3
   1877   1874   1883   1887     1  0.0000000  0.6508444  3
   1878   1877   1880   1886     1  0.0000000  1.0460000  1
   1878   1877   1880   1886     1  0.0000000  0.0000000  3
   1878   1877   1880   1881     1  0.0000000  0.6508444  3
   1878   1877   1880   1882     1  0.0000000  0.6508444  3
   1878   1877   1874   1883     1  0.0000000  0.6508444  3
   1879   1877   1880   1886     1  0.0000000  1.0460000  1
   1879   1877   1880   1886     1  0.0000000  0.0000000  3
   1879   1877   1880   1881     1  0.0000000  0.6508444  3
   1879   1877   1880   1882     1  0.0000000  0.6508444  3
   1879   1877   1874   1883     1  0.0000000  0.6508444  3
   1888   1891   1894   1895     1  0.0000000  0.6508444  3
   1888   1891   1894   1896     1  0.0000000  0.6508444  3
   1889   1888   1891   1894     1  0.0000000  0.6508444  3
   1889   1888   1891   1892     1  0.0000000  0.6508444  3
   1889   1888   1891   1893     1  0.0000000  0.6508444  3
   1889   1888   1897   1898     1  0.0000000  0.6508444  3
   1889   1888   1897   1899     1  0.0000000  0.6508444  3
   1889   1888   1897   1901     1  0.0000000  0.6508444  3
   1890   1888   1891   1894     1  0.0000000  0.6508444  3
   1890   1888   1891   1892     1  0.0000000  0.6508444  3
   1890   1888   1891   1893     1  0.0000000  0.6508444  3
   1890   1888   1897   1898     1  0.0000000  0.6508444  3
   1890   1888   1897   1899     1  0.0000000  0.6508444  3
   1890   1888   1897   1901     1  0.0000000  0.6508444  3
   1891   1888   1897   1898     1  0.0000000  0.6508444  3
   1891   1888   1897   1899     1  0.0000000  0.6508444  3
   1891   1888   1897   1901     1  0.0000000  0.6508444  3
   1892   1891   1888   1897     1  0.0000000  0.6508444  3
   1892   1891   1894   1900     1  0.0000000  1.0460000  1
   1892   1891   1894   1900     1  0.0000000  0.0000000  3
   1892   1891   1894   1895     1  0.0000000  0.6508444  3
   1892   1891   1894   1896     1  0.0000000  0.6508444  3
   1893   1891   1888   1897     1  0.0000000  0.6508444  3
   1893   1891   1894   1900     1  0.0000000  1.0460000  1
   1893   1891   1894   1900     1  0.0000000  0.0000000  3
   1893   1891   1894   1895     1  0.0000000  0.6508444  3
   1893   1891   1894   1896     1  0.0000000  0.6508444  3
   1902   1905   1908   1909     1  0.0000000  0.6508444  3
   1902   1905   1908   1910     1  0.0000000  0.6508444  3
   1903   1902   1905   1908     1  0.0000000  0.6508444  3
   1903   1902   1905   1906     1  0.0000000  0.6508444  3
   1903   1902   1905   1907     1  0.0000000  0.6508444  3
   1903   1902   1911   1912     1  0.0000000  0.6508444  3
   1903   1902   1911   1913     1  0.0000000  0.6508444  3
   1903   1902   1911   1915     1  0.0000000  0.6508444  3
   1904   1902   1905   1908     1  0.0000000  0.6508444  3
   1904   1902   1905   1906     1  0.0000000  0.6508444  3
   1904   1902   1905   1907     1  0.0000000  0.6508444  3
   1904   1902   1911   1912     1  0.0000000  0.6508444  3
   1904   1902   1911   1913     1  0.0000000  0.6508444  3
   1904   1902   1911   1915     1  0.0000000  0.6508444  3
   1905   1902   1911   1912     1  0.0000000  0.6508444  3
   1905   1902   1911   1913     1  0.0000000  0.6508444  3
   1905   1902   1911   1915     1  0.0000000  0.6508444  3
   1906   1905   1908   1914     1  0.0000000  1.0460000  1
   1906   1905   1908   1914     1  0.0000000  0.0000000  3
   1906   1905   1908   1909     1  0.0000000  0.6508444  3
   1906   1905   1908   1910     1  0.0000000  0.6508444  3
   1906   1905   1902   1911     1  0.0000000  0.6508444  3
   1907   1905   1908   1914     1  0.0000000  1.0460000  1
   1907   1905   1908   1914     1  0.0000000  0.0000000  3
   1907   1905   1908   1909     1  0.0000000  0.6508444  3
   1907   1905   1908   1910     1  0.0000000  0.6508444  3
   1907   1905   1902   1911     1  0.0000000  0.6508444  3
   1916   1919   1922   1923     1  0.0000000  0.6508444  3
   1916   1919   1922   1924     1  0.0000000  0.6508444  3
   1917   1916   1919   1922     1  0.0000000  0.6508444  3
   1917   1916   1919   1920     1  0.0000000  0.6508444  3
   1917   1916   1919   1921     1  0.0000000  0.6508444  3
   1917   1916   1925   1926     1  0.0000000  0.6508444  3
   1917   1916   1925   1927     1  0.0000000  0.6508444  3
   1917   1916   1925   1929     1  0.0000000  0.6508444  3
   1918   1916   1919   1922     1  0.0000000  0.6508444  3
   1918   1916   1919   1920     1  0.0000000  0.6508444  3
   1918   1916   1919   1921     1  0.0000000  0.6508444  3
   1918   1916   1925   1926     1  0.0000000  0.6508444  3
   1918   1916   1925   1927     1  0.0000000  0.6508444  3
   1918   1916   1925   1929     1  0.0000000  0.6508444  3
   1919   1916   1925   1926     1  0.0000000  0.6508444  3
   1919   1916   1925   1927     1  0.0000000  0.6508444  3
   1919   1916   1925   1929     1  0.0000000  0.6508444  3
   1920   1919   1916   1925     1  0.0000000  0.6508444  3
   1920   1919   1922   1928     1  0.0000000  1.0460000  1
   1920   1919   1922   1928     1  0.0000000  0.0000000  3
   1920   1919   1922   1923     1  0.0000000  0.6508444  3
   1920   1919   1922   1924     1  0.0000000  0.6508444  3
   1921   1919   1916   1925     1  0.0000000  0.6508444  3
   1921   1919   1922   1928     1  0.0000000  1.0460000  1
   1921   1919   1922   1928     1  0.0000000  0.0000000  3
   1921   1919   1922   1923     1  0.0000000  0.6508444  3
   1921   1919   1922   1924     1  0.0000000  0.6508444  3
   1930   1933   1936   1937     1  0.0000000  0.6508444  3
   1930   1933   1936   1938     1  0.0000000  0.6508444  3
   1931   1930   1933   1936     1  0.0000000  0.6508444  3
   1931   1930   1933   1934     1  0.0000000  0.6508444  3
   1931   1930   1933   1935     1  0.0000000  0.6508444  3
   1931   1930   1939   1940     1  0.0000000  0.6508444  3
   1931   1930   1939   1941     1  0.0000000  0.6508444  3
   1931   1930   1939   1943     1  0.0000000  0.6508444  3
   1932   1930   1933   1936     1  0.0000000  0.6508444  3
   1932   1930   1933   1934     1  0.0000000  0.6508444  3
   1932   1930   1933   1935     1  0.0000000  0.6508444  3
   1932   1930   1939   1940     1  0.0000000  0.6508444  3
   1932   1930   1939   1941     1  0.0000000  0.6508444  3
   1932   1930   1939   1943     1  0.0000000  0.6508444  3
   1933   1930   1939   1940     1  0.0000000  0.6508444  3
   1933   1930   1939   1941     1  0.0000000  0.6508444  3
   1933   1930   1939   1943     1  0.0000000  0.6508444  3
   1934   1933   1936   1942     1  0.0000000  1.0460000  1
   1934   1933   1936   1942     1  0.0000000  0.0000000  3
   1934   1933   1936   1937     1  0.0000000  0.6508444  3
   1934   1933   1936   1938     1  0.0000000  0.6508444  3
   1934   1933   1930   1939     1  0.0000000  0.6508444  3
   1935   1933   1936   1942     1  0.0000000  1.0460000  1
   1935   1933   1936   1942     1  0.0000000  0.0000000  3
   1935   1933   1936   1937     1  0.0000000  0.6508444  3
   1935   1933   1936   1938     1  0.0000000  0.6508444  3
   1935   1933   1930   1939     1  0.0000000  0.6508444  3
   1944   1947   1950   1951     1  0.0000000  0.6508444  3
   1944   1947   1950   1952     1  0.0000000  0.6508444  3
   1945   1944   1947   1950     1  0.0000000  0.6508444  3
   1945   1944   1947   1948     1  0.0000000  0.6508444  3
   1945   1944   1947   1949     1  0.0000000  0.6508444  3
   1945   1944   1953   1954     1  0.0000000  0.6508444  3
   1945   1944   1953   1955     1  0.0000000  0.6508444  3
   1945   1944   1953   1957     1  0.0000000  0.6508444  3
   1946   1944   1947   1950     1  0.0000000  0.6508444  3
   1946   1944   1947   1948     1  0.0000000  0.6508444  3
   1946   1944   1947   1949     1  0.0000000  0.6508444  3
   1946   1944   1953   1954     1  0.0000000  0.6508444  3
   1946   1944   1953   1955     1  0.0000000  0.6508444  3
   1946   1944   1953   1957     1  0.0000000  0.6508444  3
   1947   1944   1953   1954     1  0.0000000  0.6508444  3
   1947   1944   1953   1955     1  0.0000000  0.6508444  3
   1947   1944   1953   1957     1  0.0000000  0.6508444  3
   1948   1947   1944   1953     1  0.0000000  0.6508444  3
   1948   1947   1950   1956     1  0.0000000  1.0460000  1
   1948   1947   1950   1956     1  0.0000000  0.0000000  3
   1948   1947   1950   1951     1  0.0000000  0.6508444  3
   1948   1947   1950   1952     1  0.0000000  0.6508444  3
   1949   1947   1944   1953     1  0.0000000  0.6508444  3
   1949   1947   1950   1956     1  0.0000000  1.0460000  1
   1949   1947   1950   1956     1  0.0000000  0.0000000  3
   1949   1947   1950   1951     1  0.0000000  0.6508444  3
   1949   1947   1950   1952     1  0.0000000  0.6508444  3
   1958   1961   1964   1965     1  0.0000000  0.6508444  3
   1958   1961   1964   1966     1  0.0000000  0.6508444  3
   1959   1958   1961   1964     1  0.0000000  0.6508444  3
   1959   1958   1961   1962     1  0.0000000  0.6508444  3
   1959   1958   1961   1963     1  0.0000000  0.6508444  3
   1959   1958   1967   1968     1  0.0000000  0.6508444  3
   1959   1958   1967   1969     1  0.0000000  0.6508444  3
   1959   1958   1967   1971     1  0.0000000  0.6508444  3
   1960   1958   1961   1964     1  0.0000000  0.6508444  3
   1960   1958   1961   1962     1  0.0000000  0.6508444  3
   1960   1958   1961   1963     1  0.0000000  0.6508444  3
   1960   1958   1967   1968     1  0.0000000  0.6508444  3
   1960   1958   1967   1969     1  0.0000000  0.6508444  3
   1960   1958   1967   1971     1  0.0000000  0.6508444  3
   1961   1958   1967   1968     1  0.0000000  0.6508444  3
   1961   1958   1967   1969     1  0.0000000  0.6508444  3
   1961   1958   1967   1971     1  0.0000000  0.6508444  3
   1962   1961   1964   1970     1  0.0000000  1.0460000  1
   1962   1961   1964   1970     1  0.0000000  0.0000000  3
   1962   1961   1964   1965     1  0.0000000  0.6508444  3
   1962   1961   1964   1966     1  0.0000000  0.6508444  3
   1962   1961   1958   1967     1  0.0000000  0.6508444  3
   1963   1961   1964   1970     1  0.0000000  1.0460000  1
   1963   1961   1964   1970     1  0.0000000  0.0000000  3
   1963   1961   1964   1965     1  0.0000000  0.6508444  3
   1963   1961   1964   1966     1  0.0000000  0.6508444  3
   1963   1961   1958   1967     1  0.0000000  0.6508444  3
   1972   1975   1978   1979     1  0.0000000  0.6508444  3
   1972   1975   1978   1980     1  0.0000000  0.6508444  3
   1973   1972   1975   1978     1  0.0000000  0.6508444  3
   1973   1972   1975   1976     1  0.0000000  0.6508444  3
   1973   1972   1975   1977     1  0.0000000  0.6508444  3
   1973   1972   1981   1982     1  0.0000000  0.6508444  3
   1973   1972   1981   1983     1  0.0000000  0.6508444  3
   1973   1972   1981   1985     1  0.0000000  0.6508444  3
   1974   1972   1975   1978     1  0.0000000  0.6508444  3
   1974   1972   1975   1976     1  0.0000000  0.6508444  3
   1974   1972   1975   1977     1  0.0000000  0.6508444  3
   1974   1972   1981   1982     1  0.0000000  0.6508444  3
   1974   1972   1981   1983     1  0.0000000  0.6508444  3
   1974   1972   1981   1985     1  0.0000000  0.6508444  3
   1975   1972   1981   1982     1  0.0000000  0.6508444  3
   1975   1972   1981   1983     1  0.0000000  0.6508444  3
   1975   1972   1981   1985     1  0.0000000  0.6508444  3
   1976   1975   1972   1981     1  0.0000000  0.6508444  3
   1976   1975   1978   1984     1  0.0000000  1.0460000  1
   1976   1975   1978   1984     1  0.0000000  0.0000000  3
   1976   1975   1978   1979     1  0.0000000  0.6508444  3
   1976   1975   1978   1980     1  0.0000000  0.6508444  3
   1977   1975   1972   1981     1  0.0000000  0.6508444  3
   1977   1975   1978   1984     1  0.0000000  1.0460000  1
   1977   1975   1978   1984     1  0.0000000  0.0000000  3
   1977   1975   1978   1979     1  0.0000000  0.6508444  3
   1977   1975   1978   1980     1  0.0000000  0.6508444  3
   1986   1989   1992   1993     1  0.0000000  0.6508444  3
   1986   1989   1992   1994     1  0.0000000  0.6508444  3
   1987   1986   1989   1992     1  0.0000000  0.6508444  3
   1987   1986   1989   1990     1  0.0000000  0.6508444  3
   1987   1986   1989   1991     1  0.0000000  0.6508444  3
   1987   1986   1995   1996     1  0.0000000  0.6508444  3
   1987   1986   1995   1997     1  0.0000000  0.6508444  3
   1987   1986   1995   1999     1  0.0000000  0.6508444  3
   1988   1986   1989   1992     1  0.0000000  0.6508444  3
   1988   1986   1989   1990     1  0.0000000  0.6508444  3
   1988   1986   1989   1991     1  0.0000000  0.6508444  3
   1988   1986   1995   1996     1  0.0000000  0.6508444  3
   1988   1986   1995   1997     1  0.0000000  0.6508444  3
   1988   1986   1995   1999     1  0.0000000  0.6508444  3
   1989   1986   1995   1996     1  0.0000000  0.6508444  3
   1989   1986   1995   1997     1  0.0000000  0.6508444  3
   1989   1986   1995   1999     1  0.0000000  0.6508444  3
   1990   1989   1992   1998     1  0.0000000  1.0460000  1
   1990   1989   1992   1998     1  0.0000000  0.0000000  3
   1990   1989   1992   1993     1  0.0000000  0.6508444  3
   1990   1989   1992   1994     1  0.0000000  0.6508444  3
   1990   1989   1986   1995     1  0.0000000  0.6508444  3
   1991   1989   1992   1998     1  0.0000000  1.0460000  1
   1991   1989   1992   1998     1  0.0000000  0.0000000  3
   1991   1989   1992   1993     1  0.0000000  0.6508444  3
   1991   1989   1992   1994     1  0.0000000  0.6508444  3
   1991   1989   1986   1995     1  0.0000000  0.6508444  3
   2000   2003   2006   2007     1  0.0000000  0.6508444  3
   2000   2003   2006   2008     1  0.0000000  0.6508444  3
   2001   2000   2003   2006     1  0.0000000  0.6508444  3
   2001   2000   2003   2004     1  0.0000000  0.6508444  3
   2001   2000   2003   2005     1  0.0000000  0.6508444  3
   2001   2000   2009   2010     1  0.0000000  0.6508444  3
   2001   2000   2009   2011     1  0.0000000  0.6508444  3
   2001   2000   2009   2013     1  0.0000000  0.6508444  3
   2002   2000   2003   2006     1  0.0000000  0.6508444  3
   2002   2000   2003   2004     1  0.0000000  0.6508444  3
   2002   2000   2003   2005     1  0.0000000  0.6508444  3
   2002   2000   2009   2010     1  0.0000000  0.6508444  3
   2002   2000   2009   2011     1  0.0000000  0.6508444  3
   2002   2000   2009   2013     1  0.0000000  0.6508444  3
   2003   2000   2009   2010     1  0.0000000  0.6508444  3
   2003   2000   2009   2011     1  0.0000000  0.6508444  3
   2003   2000   2009   2013     1  0.0000000  0.6508444  3
   2004   2003   2000   2009     1  0.0000000  0.6508444  3
   2004   2003   2006   2012     1  0.0000000  1.0460000  1
   2004   2003   2006   2012     1  0.0000000  0.0000000  3
   2004   2003   2006   2007     1  0.0000000  0.6508444  3
   2004   2003   2006   2008     1  0.0000000  0.6508444  3
   2005   2003   2000   2009     1  0.0000000  0.6508444  3
   2005   2003   2006   2012     1  0.0000000  1.0460000  1
   2005   2003   2006   2012     1  0.0000000  0.0000000  3
   2005   2003   2006   2007     1  0.0000000  0.6508444  3
   2005   2003   2006   2008     1  0.0000000  0.6508444  3
   2014   2017   2020   2021     1  0.0000000  0.6508444  3
   2014   2017   2020   2022     1  0.0000000  0.6508444  3
   2015   2014   2017   2020     1  0.0000000  0.6508444  3
   2015   2014   2017   2018     1  0.0000000  0.6508444  3
   2015   2014   2017   2019     1  0.0000000  0.6508444  3
   2015   2014   2023   2024     1  0.0000000  0.6508444  3
   2015   2014   2023   2025     1  0.0000000  0.6508444  3
   2015   2014   2023   2027     1  0.0000000  0.6508444  3
   2016   2014   2017   2020     1  0.0000000  0.6508444  3
   2016   2014   2017   2018     1  0.0000000  0.6508444  3
   2016   2014   2017   2019     1  0.0000000  0.6508444  3
   2016   2014   2023   2024     1  0.0000000  0.6508444  3
   2016   2014   2023   2025     1  0.0000000  0.6508444  3
   2016   2014   2023   2027     1  0.0000000  0.6508444  3
   2017   2014   2023   2024     1  0.0000000  0.6508444  3
   2017   2014   2023   2025     1  0.0000000  0.6508444  3
   2017   2014   2023   2027     1  0.0000000  0.6508444  3
   2018   2017   2020   2026     1  0.0000000  1.0460000  1
   2018   2017   2020   2026     1  0.0000000  0.0000000  3
   2018   2017   2020   2021     1  0.0000000  0.6508444  3
   2018   2017   2020   2022     1  0.0000000  0.6508444  3
   2018   2017   2014   2023     1  0.0000000  0.6508444  3
   2019   2017   2020   2026     1  0.0000000  1.0460000  1
   2019   2017   2020   2026     1  0.0000000  0.0000000  3
   2019   2017   2020   2021     1  0.0000000  0.6508444  3
   2019   2017   2020   2022     1  0.0000000  0.6508444  3
   2019   2017   2014   2023     1  0.0000000  0.6508444  3
   2028   2031   2034   2035     1  0.0000000  0.6508444  3
   2028   2031   2034   2036     1  0.0000000  0.6508444  3
   2029   2028   2031   2034     1  0.0000000  0.6508444  3
   2029   2028   2031   2032     1  0.0000000  0.6508444  3
   2029   2028   2031   2033     1  0.0000000  0.6508444  3
   2029   2028   2037   2038     1  0.0000000  0.6508444  3
   2029   2028   2037   2039     1  0.0000000  0.6508444  3
   2029   2028   2037   2041     1  0.0000000  0.6508444  3
   2030   2028   2031   2034     1  0.0000000  0.6508444  3
   2030   2028   2031   2032     1  0.0000000  0.6508444  3
   2030   2028   2031   2033     1  0.0000000  0.6508444  3
   2030   2028   2037   2038     1  0.0000000  0.6508444  3
   2030   2028   2037   2039     1  0.0000000  0.6508444  3
   2030   2028   2037   2041     1  0.0000000  0.6508444  3
   2031   2028   2037   2038     1  0.0000000  0.6508444  3
   2031   2028   2037   2039     1  0.0000000  0.6508444  3
   2031   2028   2037   2041     1  0.0000000  0.6508444  3
   2032   2031   2028   2037     1  0.0000000  0.6508444  3
   2032   2031   2034   2040     1  0.0000000  1.0460000  1
   2032   2031   2034   2040     1  0.0000000  0.0000000  3
   2032   2031   2034   2035     1  0.0000000  0.6508444  3
   2032   2031   2034   2036     1  0.0000000  0.6508444  3
   2033   2031   2028   2037     1  0.0000000  0.6508444  3
   2033   2031   2034   2040     1  0.0000000  1.0460000  1
   2033   2031   2034   2040     1  0.0000000  0.0000000  3
   2033   2031   2034   2035     1  0.0000000  0.6508444  3
   2033   2031   2034   2036     1  0.0000000  0.6508444  3
   2042   2045   2048   2049     1  0.0000000  0.6508444  3
   2042   2045   2048   2050     1  0.0000000  0.6508444  3
   2043   2042   2045   2048     1  0.0000000  0.6508444  3
   2043   2042   2045   2046     1  0.0000000  0.6508444  3
   2043   2042   2045   2047     1  0.0000000  0.6508444  3
   2043   2042   2051   2052     1  0.0000000  0.6508444  3
   2043   2042   2051   2053     1  0.0000000  0.6508444  3
   2043   2042   2051   2055     1  0.0000000  0.6508444  3
   2044   2042   2045   2048     1  0.0000000  0.6508444  3
   2044   2042   2045   2046     1  0.0000000  0.6508444  3
   2044   2042   2045   2047     1  0.0000000  0.6508444  3
   2044   2042   2051   2052     1  0.0000000  0.6508444  3
   2044   2042   2051   2053     1  0.0000000  0.6508444  3
   2044   2042   2051   2055     1  0.0000000  0.6508444  3
   2045   2042   2051   2052     1  0.0000000  0.6508444  3
   2045   2042   2051   2053     1  0.0000000  0.6508444  3
   2045   2042   2051   2055     1  0.0000000  0.6508444  3
   2046   2045   2048   2054     1  0.0000000  1.0460000  1
   2046   2045   2048   2054     1  0.0000000  0.0000000  3
   2046   2045   2048   2049     1  0.0000000  0.6508444  3
   2046   2045   2048   2050     1  0.0000000  0.6508444  3
   2046   2045   2042   2051     1  0.0000000  0.6508444  3
   2047   2045   2048   2054     1  0.0000000  1.0460000  1
   2047   2045   2048   2054     1  0.0000000  0.0000000  3
   2047   2045   2048   2049     1  0.0000000  0.6508444  3
   2047   2045   2048   2050     1  0.0000000  0.6508444  3
   2047   2045   2042   2051     1  0.0000000  0.6508444  3
   2056   2059   2062   2063     1  0.0000000  0.6508444  3
   2056   2059   2062   2064     1  0.0000000  0.6508444  3
   2057   2056   2059   2062     1  0.0000000  0.6508444  3
   2057   2056   2059   2060     1  0.0000000  0.6508444  3
   2057   2056   2059   2061     1  0.0000000  0.6508444  3
   2057   2056   2065   2066     1  0.0000000  0.6508444  3
   2057   2056   2065   2067     1  0.0000000  0.6508444  3
   2057   2056   2065   2069     1  0.0000000  0.6508444  3
   2058   2056   2059   2062     1  0.0000000  0.6508444  3
   2058   2056   2059   2060     1  0.0000000  0.6508444  3
   2058   2056   2059   2061     1  0.0000000  0.6508444  3
   2058   2056   2065   2066     1  0.0000000  0.6508444  3
   2058   2056   2065   2067     1  0.0000000  0.6508444  3
   2058   2056   2065   2069     1  0.0000000  0.6508444  3
   2059   2056   2065   2066     1  0.0000000  0.6508444  3
   2059   2056   2065   2067     1  0.0000000  0.6508444  3
   2059   2056   2065   2069     1  0.0000000  0.6508444  3
   2060   2059   2056   2065     1  0.0000000  0.6508444  3
   2060   2059   2062   2068     1  0.0000000  1.0460000  1
   2060   2059   2062   2068     1  0.0000000  0.0000000  3
   2060   2059   2062   2063     1  0.0000000  0.6508444  3
   2060   2059   2062   2064     1  0.0000000  0.6508444  3
   2061   2059   2056   2065     1  0.0000000  0.6508444  3
   2061   2059   2062   2068     1  0.0000000  1.0460000  1
   2061   2059   2062   2068     1  0.0000000  0.0000000  3
   2061   2059   2062   2063     1  0.0000000  0.6508444  3
   2061   2059   2062   2064     1  0.0000000  0.6508444  3
   2070   2073   2076   2077     1  0.0000000  0.6508444  3
   2070   2073   2076   2078     1  0.0000000  0.6508444  3
   2071   2070   2073   2076     1  0.0000000  0.6508444  3
   2071   2070   2073   2074     1  0.0000000  0.6508444  3
   2071   2070   2073   2075     1  0.0000000  0.6508444  3
   2071   2070   2079   2080     1  0.0000000  0.6508444  3
   2071   2070   2079   2081     1  0.0000000  0.6508444  3
   2071   2070   2079   2083     1  0.0000000  0.6508444  3
   2072   2070   2073   2076     1  0.0000000  0.6508444  3
   2072   2070   2073   2074     1  0.0000000  0.6508444  3
   2072   2070   2073   2075     1  0.0000000  0.6508444  3
   2072   2070   2079   2080     1  0.0000000  0.6508444  3
   2072   2070   2079   2081     1  0.0000000  0.6508444  3
   2072   2070   2079   2083     1  0.0000000  0.6508444  3
   2073   2070   2079   2080     1  0.0000000  0.6508444  3
   2073   2070   2079   2081     1  0.0000000  0.6508444  3
   2073   2070   2079   2083     1  0.0000000  0.6508444  3
   2074   2073   2076   2082     1  0.0000000  1.0460000  1
   2074   2073   2076   2082     1  0.0000000  0.0000000  3
   2074   2073   2076   2077     1  0.0000000  0.6508444  3
   2074   2073   2076   2078     1  0.0000000  0.6508444  3
   2074   2073   2070   2079     1  0.0000000  0.6508444  3
   2075   2073   2076   2082     1  0.0000000  1.0460000  1
   2075   2073   2076   2082     1  0.0000000  0.0000000  3
   2075   2073   2076   2077     1  0.0000000  0.6508444  3
   2075   2073   2076   2078     1  0.0000000  0.6508444  3
   2075   2073   2070   2079     1  0.0000000  0.6508444  3
   2084   2087   2090   2091     1  0.0000000  0.6508444  3
   2084   2087   2090   2092     1  0.0000000  0.6508444  3
   2085   2084   2087   2090     1  0.0000000  0.6508444  3
   2085   2084   2087   2088     1  0.0000000  0.6508444  3
   2085   2084   2087   2089     1  0.0000000  0.6508444  3
   2085   2084   2093   2094     1  0.0000000  0.6508444  3
   2085   2084   2093   2095     1  0.0000000  0.6508444  3
   2085   2084   2093   2097     1  0.0000000  0.6508444  3
   2086   2084   2087   2090     1  0.0000000  0.6508444  3
   2086   2084   2087   2088     1  0.0000000  0.6508444  3
   2086   2084   2087   2089     1  0.0000000  0.6508444  3
   2086   2084   2093   2094     1  0.0000000  0.6508444  3
   2086   2084   2093   2095     1  0.0000000  0.6508444  3
   2086   2084   2093   2097     1  0.0000000  0.6508444  3
   2087   2084   2093   2094     1  0.0000000  0.6508444  3
   2087   2084   2093   2095     1  0.0000000  0.6508444  3
   2087   2084   2093   2097     1  0.0000000  0.6508444  3
   2088   2087   2084   2093     1  0.0000000  0.6508444  3
   2088   2087   2090   2096     1  0.0000000  1.0460000  1
   2088   2087   2090   2096     1  0.0000000  0.0000000  3
   2088   2087   2090   2091     1  0.0000000  0.6508444  3
   2088   2087   2090   2092     1  0.0000000  0.6508444  3
   2089   2087   2084   2093     1  0.0000000  0.6508444  3
   2089   2087   2090   2096     1  0.0000000  1.0460000  1
   2089   2087   2090   2096     1  0.0000000  0.0000000  3
   2089   2087   2090   2091     1  0.0000000  0.6508444  3
   2089   2087   2090   2092     1  0.0000000  0.6508444  3
   2098   2101   2104   2105     1  0.0000000  0.6508444  3
   2098   2101   2104   2106     1  0.0000000  0.6508444  3
   2099   2098   2101   2104     1  0.0000000  0.6508444  3
   2099   2098   2101   2102     1  0.0000000  0.6508444  3
   2099   2098   2101   2103     1  0.0000000  0.6508444  3
   2099   2098   2107   2108     1  0.0000000  0.6508444  3
   2099   2098   2107   2109     1  0.0000000  0.6508444  3
   2099   2098   2107   2111     1  0.0000000  0.6508444  3
   2100   2098   2101   2104     1  0.0000000  0.6508444  3
   2100   2098   2101   2102     1  0.0000000  0.6508444  3
   2100   2098   2101   2103     1  0.0000000  0.6508444  3
   2100   2098   2107   2108     1  0.0000000  0.6508444  3
   2100   2098   2107   2109     1  0.0000000  0.6508444  3
   2100   2098   2107   2111     1  0.0000000  0.6508444  3
   2101   2098   2107   2108     1  0.0000000  0.6508444  3
   2101   2098   2107   2109     1  0.0000000  0.6508444  3
   2101   2098   2107   2111     1  0.0000000  0.6508444  3
   2102   2101   2104   2110     1  0.0000000  1.0460000  1
   2102   2101   2104   2110     1  0.0000000  0.0000000  3
   2102   2101   2104   2105     1  0.0000000  0.6508444  3
   2102   2101   2104   2106     1  0.0000000  0.6508444  3
   2102   2101   2098   2107     1  0.0000000  0.6508444  3
   2103   2101   2104   2110     1  0.0000000  1.0460000  1
   2103   2101   2104   2110     1  0.0000000  0.0000000  3
   2103   2101   2104   2105     1  0.0000000  0.6508444  3
   2103   2101   2104   2106     1  0.0000000  0.6508444  3
   2103   2101   2098   2107     1  0.0000000  0.6508444  3
   2112   2115   2118   2119     1  0.0000000  0.6508444  3
   2112   2115   2118   2120     1  0.0000000  0.6508444  3
   2113   2112   2115   2118     1  0.0000000  0.6508444  3
   2113   2112   2115   2116     1  0.0000000  0.6508444  3
   2113   2112   2115   2117     1  0.0000000  0.6508444  3
   2113   2112   2121   2122     1  0.0000000  0.6508444  3
   2113   2112   2121   2123     1  0.0000000  0.6508444  3
   2113   2112   2121   2125     1  0.0000000  0.6508444  3
   2114   2112   2115   2118     1  0.0000000  0.6508444  3
   2114   2112   2115   2116     1  0.0000000  0.6508444  3
   2114   2112   2115   2117     1  0.0000000  0.6508444  3
   2114   2112   2121   2122     1  0.0000000  0.6508444  3
   2114   2112   2121   2123     1  0.0000000  0.6508444  3
   2114   2112   2121   2125     1  0.0000000  0.6508444  3
   2115   2112   2121   2122     1  0.0000000  0.6508444  3
   2115   2112   2121   2123     1  0.0000000  0.6508444  3
   2115   2112   2121   2125     1  0.0000000  0.6508444  3
   2116   2115   2112   2121     1  0.0000000  0.6508444  3
   2116   2115   2118   2124     1  0.0000000  1.0460000  1
   2116   2115   2118   2124     1  0.0000000  0.0000000  3
   2116   2115   2118   2119     1  0.0000000  0.6508444  3
   2116   2115   2118   2120     1  0.0000000  0.6508444  3
   2117   2115   2112   2121     1  0.0000000  0.6508444  3
   2117   2115   2118   2124     1  0.0000000  1.0460000  1
   2117   2115   2118   2124     1  0.0000000  0.0000000  3
   2117   2115   2118   2119     1  0.0000000  0.6508444  3
   2117   2115   2118   2120     1  0.0000000  0.6508444  3
   2126   2129   2132   2133     1  0.0000000  0.6508444  3
   2126   2129   2132   2134     1  0.0000000  0.6508444  3
   2127   2126   2129   2132     1  0.0000000  0.6508444  3
   2127   2126   2129   2130     1  0.0000000  0.6508444  3
   2127   2126   2129   2131     1  0.0000000  0.6508444  3
   2127   2126   2135   2136     1  0.0000000  0.6508444  3
   2127   2126   2135   2137     1  0.0000000  0.6508444  3
   2127   2126   2135   2139     1  0.0000000  0.6508444  3
   2128   2126   2129   2132     1  0.0000000  0.6508444  3
   2128   2126   2129   2130     1  0.0000000  0.6508444  3
   2128   2126   2129   2131     1  0.0000000  0.6508444  3
   2128   2126   2135   2136     1  0.0000000  0.6508444  3
   2128   2126   2135   2137     1  0.0000000  0.6508444  3
   2128   2126   2135   2139     1  0.0000000  0.6508444  3
   2129   2126   2135   2136     1  0.0000000  0.6508444  3
   2129   2126   2135   2137     1  0.0000000  0.6508444  3
   2129   2126   2135   2139     1  0.0000000  0.6508444  3
   2130   2129   2132   2138     1  0.0000000  1.0460000  1
   2130   2129   2132   2138     1  0.0000000  0.0000000  3
   2130   2129   2132   2133     1  0.0000000  0.6508444  3
   2130   2129   2132   2134     1  0.0000000  0.6508444  3
   2130   2129   2126   2135     1  0.0000000  0.6508444  3
   2131   2129   2132   2138     1  0.0000000  1.0460000  1
   2131   2129   2132   2138     1  0.0000000  0.0000000  3
   2131   2129   2132   2133     1  0.0000000  0.6508444  3
   2131   2129   2132   2134     1  0.0000000  0.6508444  3
   2131   2129   2126   2135     1  0.0000000  0.6508444  3
   2140   2143   2146   2147     1  0.0000000  0.6508444  3
   2140   2143   2146   2148     1  0.0000000  0.6508444  3
   2141   2140   2143   2146     1  0.0000000  0.6508444  3
   2141   2140   2143   2144     1  0.0000000  0.6508444  3
   2141   2140   2143   2145     1  0.0000000  0.6508444  3
   2141   2140   2149   2150     1  0.0000000  0.6508444  3
   2141   2140   2149   2151     1  0.0000000  0.6508444  3
   2141   2140   2149   2153     1  0.0000000  0.6508444  3
   2142   2140   2143   2146     1  0.0000000  0.6508444  3
   2142   2140   2143   2144     1  0.0000000  0.6508444  3
   2142   2140   2143   2145     1  0.0000000  0.6508444  3
   2142   2140   2149   2150     1  0.0000000  0.6508444  3
   2142   2140   2149   2151     1  0.0000000  0.6508444  3
   2142   2140   2149   2153     1  0.0000000  0.6508444  3
   2143   2140   2149   2150     1  0.0000000  0.6508444  3
   2143   2140   2149   2151     1  0.0000000  0.6508444  3
   2143   2140   2149   2153     1  0.0000000  0.6508444  3
   2144   2143   2140   2149     1  0.0000000  0.6508444  3
   2144   2143   2146   2152     1  0.0000000  1.0460000  1
   2144   2143   2146   2152     1  0.0000000  0.0000000  3
   2144   2143   2146   2147     1  0.0000000  0.6508444  3
   2144   2143   2146   2148     1  0.0000000  0.6508444  3
   2145   2143   2140   2149     1  0.0000000  0.6508444  3
   2145   2143   2146   2152     1  0.0000000  1.0460000  1
   2145   2143   2146   2152     1  0.0000000  0.0000000  3
   2145   2143   2146   2147     1  0.0000000  0.6508444  3
   2145   2143   2146   2148     1  0.0000000  0.6508444  3
   2154   2157   2160   2161     1  0.0000000  0.6508444  3
   2154   2157   2160   2162     1  0.0000000  0.6508444  3
   2155   2154   2157   2160     1  0.0000000  0.6508444  3
   2155   2154   2157   2158     1  0.0000000  0.6508444  3
   2155   2154   2157   2159     1  0.0000000  0.6508444  3
   2155   2154   2163   2164     1  0.0000000  0.6508444  3
   2155   2154   2163   2165     1  0.0000000  0.6508444  3
   2155   2154   2163   2167     1  0.0000000  0.6508444  3
   2156   2154   2157   2160     1  0.0000000  0.6508444  3
   2156   2154   2157   2158     1  0.0000000  0.6508444  3
   2156   2154   2157   2159     1  0.0000000  0.6508444  3
   2156   2154   2163   2164     1  0.0000000  0.6508444  3
   2156   2154   2163   2165     1  0.0000000  0.6508444  3
   2156   2154   2163   2167     1  0.0000000  0.6508444  3
   2157   2154   2163   2164     1  0.0000000  0.6508444  3
   2157   2154   2163   2165     1  0.0000000  0.6508444  3
   2157   2154   2163   2167     1  0.0000000  0.6508444  3
   2158   2157   2160   2166     1  0.0000000  1.0460000  1
   2158   2157   2160   2166     1  0.0000000  0.0000000  3
   2158   2157   2160   2161     1  0.0000000  0.6508444  3
   2158   2157   2160   2162     1  0.0000000  0.6508444  3
   2158   2157   2154   2163     1  0.0000000  0.6508444  3
   2159   2157   2160   2166     1  0.0000000  1.0460000  1
   2159   2157   2160   2166     1  0.0000000  0.0000000  3
   2159   2157   2160   2161     1  0.0000000  0.6508444  3
   2159   2157   2160   2162     1  0.0000000  0.6508444  3
   2159   2157   2154   2163     1  0.0000000  0.6508444  3
   2168   2171   2174   2175     1  0.0000000  0.6508444  3
   2168   2171   2174   2176     1  0.0000000  0.6508444  3
   2169   2168   2171   2174     1  0.0000000  0.6508444  3
   2169   2168   2171   2172     1  0.0000000  0.6508444  3
   2169   2168   2171   2173     1  0.0000000  0.6508444  3
   2169   2168   2177   2178     1  0.0000000  0.6508444  3
   2169   2168   2177   2179     1  0.0000000  0.6508444  3
   2169   2168   2177   2181     1  0.0000000  0.6508444  3
   2170   2168   2171   2174     1  0.0000000  0.6508444  3
   2170   2168   2171   2172     1  0.0000000  0.6508444  3
   2170   2168   2171   2173     1  0.0000000  0.6508444  3
   2170   2168   2177   2178     1  0.0000000  0.6508444  3
   2170   2168   2177   2179     1  0.0000000  0.6508444  3
   2170   2168   2177   2181     1  0.0000000  0.6508444  3
   2171   2168   2177   2178     1  0.0000000  0.6508444  3
   2171   2168   2177   2179     1  0.0000000  0.6508444  3
   2171   2168   2177   2181     1  0.0000000  0.6508444  3
   2172   2171   2168   2177     1  0.0000000  0.6508444  3
   2172   2171   2174   2180     1  0.0000000  1.0460000  1
   2172   2171   2174   2180     1  0.0000000  0.0000000  3
   2172   2171   2174   2175     1  0.0000000  0.6508444  3
   2172   2171   2174   2176     1  0.0000000  0.6508444  3
   2173   2171   2168   2177     1  0.0000000  0.6508444  3
   2173   2171   2174   2180     1  0.0000000  1.0460000  1
   2173   2171   2174   2180     1  0.0000000  0.0000000  3
   2173   2171   2174   2175     1  0.0000000  0.6508444  3
   2173   2171   2174   2176     1  0.0000000  0.6508444  3
   2182   2185   2188   2189     1  0.0000000  0.6508444  3
   2182   2185   2188   2190     1  0.0000000  0.6508444  3
   2183   2182   2185   2188     1  0.0000000  0.6508444  3
   2183   2182   2185   2186     1  0.0000000  0.6508444  3
   2183   2182   2185   2187     1  0.0000000  0.6508444  3
   2183   2182   2191   2192     1  0.0000000  0.6508444  3
   2183   2182   2191   2193     1  0.0000000  0.6508444  3
   2183   2182   2191   2195     1  0.0000000  0.6508444  3
   2184   2182   2185   2188     1  0.0000000  0.6508444  3
   2184   2182   2185   2186     1  0.0000000  0.6508444  3
   2184   2182   2185   2187     1  0.0000000  0.6508444  3
   2184   2182   2191   2192     1  0.0000000  0.6508444  3
   2184   2182   2191   2193     1  0.0000000  0.6508444  3
   2184   2182   2191   2195     1  0.0000000  0.6508444  3
   2185   2182   2191   2192     1  0.0000000  0.6508444  3
   2185   2182   2191   2193     1  0.0000000  0.6508444  3
   2185   2182   2191   2195     1  0.0000000  0.6508444  3
   2186   2185   2188   2194     1  0.0000000  1.0460000  1
   2186   2185   2188   2194     1  0.0000000  0.0000000  3
   2186   2185   2188   2189     1  0.0000000  0.6508444  3
   2186   2185   2188   2190     1  0.0000000  0.6508444  3
   2186   2185   2182   2191     1  0.0000000  0.6508444  3
   2187   2185   2188   2194     1  0.0000000  1.0460000  1
   2187   2185   2188   2194     1  0.0000000  0.0000000  3
   2187   2185   2188   2189     1  0.0000000  0.6508444  3
   2187   2185   2188   2190     1  0.0000000  0.6508444  3
   2187   2185   2182   2191     1  0.0000000  0.6508444  3
   2196   2199   2202   2203     1  0.0000000  0.6508444  3
   2196   2199   2202   2204     1  0.0000000  0.6508444  3
   2197   2196   2199   2202     1  0.0000000  0.6508444  3
   2197   2196   2199   2200     1  0.0000000  0.6508444  3
   2197   2196   2199   2201     1  0.0000000  0.6508444  3
   2197   2196   2205   2206     1  0.0000000  0.6508444  3
   2197   2196   2205   2207     1  0.0000000  0.6508444  3
   2197   2196   2205   2209     1  0.0000000  0.6508444  3
   2198   2196   2199   2202     1  0.0000000  0.6508444  3
   2198   2196   2199   2200     1  0.0000000  0.6508444  3
   2198   2196   2199   2201     1  0.0000000  0.6508444  3
   2198   2196   2205   2206     1  0.0000000  0.6508444  3
   2198   2196   2205   2207     1  0.0000000  0.6508444  3
   2198   2196   2205   2209     1  0.0000000  0.6508444  3
   2199   2196   2205   2206     1  0.0000000  0.6508444  3
   2199   2196   2205   2207     1  0.0000000  0.6508444  3
   2199   2196   2205   2209     1  0.0000000  0.6508444  3
   2200   2199   2196   2205     1  0.0000000  0.6508444  3
   2200   2199   2202   2208     1  0.0000000  1.0460000  1
   2200   2199   2202   2208     1  0.0000000  0.0000000  3
   2200   2199   2202   2203     1  0.0000000  0.6508444  3
   2200   2199   2202   2204     1  0.0000000  0.6508444  3
   2201   2199   2196   2205     1  0.0000000  0.6508444  3
   2201   2199   2202   2208     1  0.0000000  1.0460000  1
   2201   2199   2202   2208     1  0.0000000  0.0000000  3
   2201   2199   2202   2203     1  0.0000000  0.6508444  3
   2201   2199   2202   2204     1  0.0000000  0.6508444  3
   2210   2213   2216   2217     1  0.0000000  0.6508444  3
   2210   2213   2216   2218     1  0.0000000  0.6508444  3
   2211   2210   2213   2216     1  0.0000000  0.6508444  3
   2211   2210   2213   2214     1  0.0000000  0.6508444  3
   2211   2210   2213   2215     1  0.0000000  0.6508444  3
   2211   2210   2219   2220     1  0.0000000  0.6508444  3
   2211   2210   2219   2221     1  0.0000000  0.6508444  3
   2211   2210   2219   2223     1  0.0000000  0.6508444  3
   2212   2210   2213   2216     1  0.0000000  0.6508444  3
   2212   2210   2213   2214     1  0.0000000  0.6508444  3
   2212   2210   2213   2215     1  0.0000000  0.6508444  3
   2212   2210   2219   2220     1  0.0000000  0.6508444  3
   2212   2210   2219   2221     1  0.0000000  0.6508444  3
   2212   2210   2219   2223     1  0.0000000  0.6508444  3
   2213   2210   2219   2220     1  0.0000000  0.6508444  3
   2213   2210   2219   2221     1  0.0000000  0.6508444  3
   2213   2210   2219   2223     1  0.0000000  0.6508444  3
   2214   2213   2216   2222     1  0.0000000  1.0460000  1
   2214   2213   2216   2222     1  0.0000000  0.0000000  3
   2214   2213   2216   2217     1  0.0000000  0.6508444  3
   2214   2213   2216   2218     1  0.0000000  0.6508444  3
   2214   2213   2210   2219     1  0.0000000  0.6508444  3
   2215   2213   2216   2222     1  0.0000000  1.0460000  1
   2215   2213   2216   2222     1  0.0000000  0.0000000  3
   2215   2213   2216   2217     1  0.0000000  0.6508444  3
   2215   2213   2216   2218     1  0.0000000  0.6508444  3
   2215   2213   2210   2219     1  0.0000000  0.6508444  3
   2224   2227   2230   2231     1  0.0000000  0.6508444  3
   2224   2227   2230   2232     1  0.0000000  0.6508444  3
   2225   2224   2227   2230     1  0.0000000  0.6508444  3
   2225   2224   2227   2228     1  0.0000000  0.6508444  3
   2225   2224   2227   2229     1  0.0000000  0.6508444  3
   2225   2224   2233   2234     1  0.0000000  0.6508444  3
   2225   2224   2233   2235     1  0.0000000  0.6508444  3
   2225   2224   2233   2237     1  0.0000000  0.6508444  3
   2226   2224   2227   2230     1  0.0000000  0.6508444  3
   2226   2224   2227   2228     1  0.0000000  0.6508444  3
   2226   2224   2227   2229     1  0.0000000  0.6508444  3
   2226   2224   2233   2234     1  0.0000000  0.6508444  3
   2226   2224   2233   2235     1  0.0000000  0.6508444  3
   2226   2224   2233   2237     1  0.0000000  0.6508444  3
   2227   2224   2233   2234     1  0.0000000  0.6508444  3
   2227   2224   2233   2235     1  0.0000000  0.6508444  3
   2227   2224   2233   2237     1  0.0000000  0.6508444  3
   2228   2227   2224   2233     1  0.0000000  0.6508444  3
   2228   2227   2230   2236     1  0.0000000  1.0460000  1
   2228   2227   2230   2236     1  0.0000000  0.0000000  3
   2228   2227   2230   2231     1  0.0000000  0.6508444  3
   2228   2227   2230   2232     1  0.0000000  0.6508444  3
   2229   2227   2224   2233     1  0.0000000  0.6508444  3
   2229   2227   2230   2236     1  0.0000000  1.0460000  1
   2229   2227   2230   2236     1  0.0000000  0.0000000  3
   2229   2227   2230   2231     1  0.0000000  0.6508444  3
   2229   2227   2230   2232     1  0.0000000  0.6508444  3
   2238   2241   2244   2245     1  0.0000000  0.6508444  3
   2238   2241   2244   2246     1  0.0000000  0.6508444  3
   2239   2238   2241   2244     1  0.0000000  0.6508444  3
   2239   2238   2241   2242     1  0.0000000  0.6508444  3
   2239   2238   2241   2243     1  0.0000000  0.6508444  3
   2239   2238   2247   2248     1  0.0000000  0.6508444  3
   2239   2238   2247   2249     1  0.0000000  0.6508444  3
   2239   2238   2247   2251     1  0.0000000  0.6508444  3
   2240   2238   2241   2244     1  0.0000000  0.6508444  3
   2240   2238   2241   2242     1  0.0000000  0.6508444  3
   2240   2238   2241   2243     1  0.0000000  0.6508444  3
   2240   2238   2247   2248     1  0.0000000  0.6508444  3
   2240   2238   2247   2249     1  0.0000000  0.6508444  3
   2240   2238   2247   2251     1  0.0000000  0.6508444  3
   2241   2238   2247   2248     1  0.0000000  0.6508444  3
   2241   2238   2247   2249     1  0.0000000  0.6508444  3
   2241   2238   2247   2251     1  0.0000000  0.6508444  3
   2242   2241   2244   2250     1  0.0000000  1.0460000  1
   2242   2241   2244   2250     1  0.0000000  0.0000000  3
   2242   2241   2244   2245     1  0.0000000  0.6508444  3
   2242   2241   2244   2246     1  0.0000000  0.6508444  3
   2242   2241   2238   2247     1  0.0000000  0.6508444  3
   2243   2241   2244   2250     1  0.0000000  1.0460000  1
   2243   2241   2244   2250     1  0.0000000  0.0000000  3
   2243   2241   2244   2245     1  0.0000000  0.6508444  3
   2243   2241   2244   2246     1  0.0000000  0.6508444  3
   2243   2241   2238   2247     1  0.0000000  0.6508444  3
   2252   2255   2258   2259     1  0.0000000  0.6508444  3
   2252   2255   2258   2260     1  0.0000000  0.6508444  3
   2253   2252   2255   2258     1  0.0000000  0.6508444  3
   2253   2252   2255   2256     1  0.0000000  0.6508444  3
   2253   2252   2255   2257     1  0.0000000  0.6508444  3
   2253   2252   2261   2262     1  0.0000000  0.6508444  3
   2253   2252   2261   2263     1  0.0000000  0.6508444  3
   2253   2252   2261   2265     1  0.0000000  0.6508444  3
   2254   2252   2255   2258     1  0.0000000  0.6508444  3
   2254   2252   2255   2256     1  0.0000000  0.6508444  3
   2254   2252   2255   2257     1  0.0000000  0.6508444  3
   2254   2252   2261   2262     1  0.0000000  0.6508444  3
   2254   2252   2261   2263     1  0.0000000  0.6508444  3
   2254   2252   2261   2265     1  0.0000000  0.6508444  3
   2255   2252   2261   2262     1  0.0000000  0.6508444  3
   2255   2252   2261   2263     1  0.0000000  0.6508444  3
   2255   2252   2261   2265     1  0.0000000  0.6508444  3
   2256   2255   2252   2261     1  0.0000000  0.6508444  3
   2256   2255   2258   2264     1  0.0000000  1.0460000  1
   2256   2255   2258   2264     1  0.0000000  0.0000000  3
   2256   2255   2258   2259     1  0.0000000  0.6508444  3
   2256   2255   2258   2260     1  0.0000000  0.6508444  3
   2257   2255   2252   2261     1  0.0000000  0.6508444  3
   2257   2255   2258   2264     1  0.0000000  1.0460000  1
   2257   2255   2258   2264     1  0.0000000  0.0000000  3
   2257   2255   2258   2259     1  0.0000000  0.6508444  3
   2257   2255   2258   2260     1  0.0000000  0.6508444  3
   2266   2269   2272   2273     1  0.0000000  0.6508444  3
   2266   2269   2272   2274     1  0.0000000  0.6508444  3
   2267   2266   2269   2272     1  0.0000000  0.6508444  3
   2267   2266   2269   2270     1  0.0000000  0.6508444  3
   2267   2266   2269   2271     1  0.0000000  0.6508444  3
   2267   2266   2275   2276     1  0.0000000  0.6508444  3
   2267   2266   2275   2277     1  0.0000000  0.6508444  3
   2267   2266   2275   2279     1  0.0000000  0.6508444  3
   2268   2266   2269   2272     1  0.0000000  0.6508444  3
   2268   2266   2269   2270     1  0.0000000  0.6508444  3
   2268   2266   2269   2271     1  0.0000000  0.6508444  3
   2268   2266   2275   2276     1  0.0000000  0.6508444  3
   2268   2266   2275   2277     1  0.0000000  0.6508444  3
   2268   2266   2275   2279     1  0.0000000  0.6508444  3
   2269   2266   2275   2276     1  0.0000000  0.6508444  3
   2269   2266   2275   2277     1  0.0000000  0.6508444  3
   2269   2266   2275   2279     1  0.0000000  0.6508444  3
   2270   2269   2272   2278     1  0.0000000  1.0460000  1
   2270   2269   2272   2278     1  0.0000000  0.0000000  3
   2270   2269   2272   2273     1  0.0000000  0.6508444  3
   2270   2269   2272   2274     1  0.0000000  0.6508444  3
   2270   2269   2266   2275     1  0.0000000  0.6508444  3
   2271   2269   2272   2278     1  0.0000000  1.0460000  1
   2271   2269   2272   2278     1  0.0000000  0.0000000  3
   2271   2269   2272   2273     1  0.0000000  0.6508444  3
   2271   2269   2272   2274     1  0.0000000  0.6508444  3
   2271   2269   2266   2275     1  0.0000000  0.6508444  3
   2280   2283   2286   2287     1  0.0000000  0.6508444  3
   2280   2283   2286   2288     1  0.0000000  0.6508444  3
   2281   2280   2283   2286     1  0.0000000  0.6508444  3
   2281   2280   2283   2284     1  0.0000000  0.6508444  3
   2281   2280   2283   2285     1  0.0000000  0.6508444  3
   2281   2280   2289   2290     1  0.0000000  0.6508444  3
   2281   2280   2289   2291     1  0.0000000  0.6508444  3
   2281   2280   2289   2293     1  0.0000000  0.6508444  3
   2282   2280   2283   2286     1  0.0000000  0.6508444  3
   2282   2280   2283   2284     1  0.0000000  0.6508444  3
   2282   2280   2283   2285     1  0.0000000  0.6508444  3
   2282   2280   2289   2290     1  0.0000000  0.6508444  3
   2282   2280   2289   2291     1  0.0000000  0.6508444  3
   2282   2280   2289   2293     1  0.0000000  0.6508444  3
   2283   2280   2289   2290     1  0.0000000  0.6508444  3
   2283   2280   2289   2291     1  0.0000000  0.6508444  3
   2283   2280   2289   2293     1  0.0000000  0.6508444  3
   2284   2283   2280   2289     1  0.0000000  0.6508444  3
   2284   2283   2286   2292     1  0.0000000  1.0460000  1
   2284   2283   2286   2292     1  0.0000000  0.0000000  3
   2284   2283   2286   2287     1  0.0000000  0.6508444  3
   2284   2283   2286   2288     1  0.0000000  0.6508444  3
   2285   2283   2280   2289     1  0.0000000  0.6508444  3
   2285   2283   2286   2292     1  0.0000000  1.0460000  1
   2285   2283   2286   2292     1  0.0000000  0.0000000  3
   2285   2283   2286   2287     1  0.0000000  0.6508444  3
   2285   2283   2286   2288     1  0.0000000  0.6508444  3
   2294   2297   2300   2301     1  0.0000000  0.6508444  3
   2294   2297   2300   2302     1  0.0000000  0.6508444  3
   2295   2294   2297   2300     1  0.0000000  0.6508444  3
   2295   2294   2297   2298     1  0.0000000  0.6508444  3
   2295   2294   2297   2299     1  0.0000000  0.6508444  3
   2295   2294   2303   2304     1  0.0000000  0.6508444  3
   2295   2294   2303   2305     1  0.0000000  0.6508444  3
   2295   2294   2303   2307     1  0.0000000  0.6508444  3
   2296   2294   2297   2300     1  0.0000000  0.6508444  3
   2296   2294   2297   2298     1  0.0000000  0.6508444  3
   2296   2294   2297   2299     1  0.0000000  0.6508444  3
   2296   2294   2303   2304     1  0.0000000  0.6508444  3
   2296   2294   2303   2305     1  0.0000000  0.6508444  3
   2296   2294   2303   2307     1  0.0000000  0.6508444  3
   2297   2294   2303   2304     1  0.0000000  0.6508444  3
   2297   2294   2303   2305     1  0.0000000  0.6508444  3
   2297   2294   2303   2307     1  0.0000000  0.6508444  3
   2298   2297   2300   2306     1  0.0000000  1.0460000  1
   2298   2297   2300   2306     1  0.0000000  0.0000000  3
   2298   2297   2300   2301     1  0.0000000  0.6508444  3
   2298   2297   2300   2302     1  0.0000000  0.6508444  3
   2298   2297   2294   2303     1  0.0000000  0.6508444  3
   2299   2297   2300   2306     1  0.0000000  1.0460000  1
   2299   2297   2300   2306     1  0.0000000  0.0000000  3
   2299   2297   2300   2301     1  0.0000000  0.6508444  3
   2299   2297   2300   2302     1  0.0000000  0.6508444  3
   2299   2297   2294   2303     1  0.0000000  0.6508444  3
   2308   2311   2314   2315     1  0.0000000  0.6508444  3
   2308   2311   2314   2316     1  0.0000000  0.6508444  3
   2309   2308   2311   2314     1  0.0000000  0.6508444  3
   2309   2308   2311   2312     1  0.0000000  0.6508444  3
   2309   2308   2311   2313     1  0.0000000  0.6508444  3
   2309   2308   2317   2318     1  0.0000000  0.6508444  3
   2309   2308   2317   2319     1  0.0000000  0.6508444  3
   2309   2308   2317   2321     1  0.0000000  0.6508444  3
   2310   2308   2311   2314     1  0.0000000  0.6508444  3
   2310   2308   2311   2312     1  0.0000000  0.6508444  3
   2310   2308   2311   2313     1  0.0000000  0.6508444  3
   2310   2308   2317   2318     1  0.0000000  0.6508444  3
   2310   2308   2317   2319     1  0.0000000  0.6508444  3
   2310   2308   2317   2321     1  0.0000000  0.6508444  3
   2311   2308   2317   2318     1  0.0000000  0.6508444  3
   2311   2308   2317   2319     1  0.0000000  0.6508444  3
   2311   2308   2317   2321     1  0.0000000  0.6508444  3
   2312   2311   2308   2317     1  0.0000000  0.6508444  3
   2312   2311   2314   2320     1  0.0000000  1.0460000  1
   2312   2311   2314   2320     1  0.0000000  0.0000000  3
   2312   2311   2314   2315     1  0.0000000  0.6508444  3
   2312   2311   2314   2316     1  0.0000000  0.6508444  3
   2313   2311   2308   2317     1  0.0000000  0.6508444  3
   2313   2311   2314   2320     1  0.0000000  1.0460000  1
   2313   2311   2314   2320     1  0.0000000  0.0000000  3
   2313   2311   2314   2315     1  0.0000000  0.6508444  3
   2313   2311   2314   2316     1  0.0000000  0.6508444  3
   2322   2325   2328   2329     1  0.0000000  0.6508444  3
   2322   2325   2328   2330     1  0.0000000  0.6508444  3
   2323   2322   2325   2328     1  0.0000000  0.6508444  3
   2323   2322   2325   2326     1  0.0000000  0.6508444  3
   2323   2322   2325   2327     1  0.0000000  0.6508444  3
   2323   2322   2331   2332     1  0.0000000  0.6508444  3
   2323   2322   2331   2333     1  0.0000000  0.6508444  3
   2323   2322   2331   2335     1  0.0000000  0.6508444  3
   2324   2322   2325   2328     1  0.0000000  0.6508444  3
   2324   2322   2325   2326     1  0.0000000  0.6508444  3
   2324   2322   2325   2327     1  0.0000000  0.6508444  3
   2324   2322   2331   2332     1  0.0000000  0.6508444  3
   2324   2322   2331   2333     1  0.0000000  0.6508444  3
   2324   2322   2331   2335     1  0.0000000  0.6508444  3
   2325   2322   2331   2332     1  0.0000000  0.6508444  3
   2325   2322   2331   2333     1  0.0000000  0.6508444  3
   2325   2322   2331   2335     1  0.0000000  0.6508444  3
   2326   2325   2328   2334     1  0.0000000  1.0460000  1
   2326   2325   2328   2334     1  0.0000000  0.0000000  3
   2326   2325   2328   2329     1  0.0000000  0.6508444  3
   2326   2325   2328   2330     1  0.0000000  0.6508444  3
   2326   2325   2322   2331     1  0.0000000  0.6508444  3
   2327   2325   2328   2334     1  0.0000000  1.0460000  1
   2327   2325   2328   2334     1  0.0000000  0.0000000  3
   2327   2325   2328   2329     1  0.0000000  0.6508444  3
   2327   2325   2328   2330     1  0.0000000  0.6508444  3
   2327   2325   2322   2331     1  0.0000000  0.6508444  3
   2336   2339   2342   2343     1  0.0000000  0.6508444  3
   2336   2339   2342   2344     1  0.0000000  0.6508444  3
   2337   2336   2339   2342     1  0.0000000  0.6508444  3
   2337   2336   2339   2340     1  0.0000000  0.6508444  3
   2337   2336   2339   2341     1  0.0000000  0.6508444  3
   2337   2336   2345   2346     1  0.0000000  0.6508444  3
   2337   2336   2345   2347     1  0.0000000  0.6508444  3
   2337   2336   2345   2349     1  0.0000000  0.6508444  3
   2338   2336   2339   2342     1  0.0000000  0.6508444  3
   2338   2336   2339   2340     1  0.0000000  0.6508444  3
   2338   2336   2339   2341     1  0.0000000  0.6508444  3
   2338   2336   2345   2346     1  0.0000000  0.6508444  3
   2338   2336   2345   2347     1  0.0000000  0.6508444  3
   2338   2336   2345   2349     1  0.0000000  0.6508444  3
   2339   2336   2345   2346     1  0.0000000  0.6508444  3
   2339   2336   2345   2347     1  0.0000000  0.6508444  3
   2339   2336   2345   2349     1  0.0000000  0.6508444  3
   2340   2339   2336   2345     1  0.0000000  0.6508444  3
   2340   2339   2342   2348     1  0.0000000  1.0460000  1
   2340   2339   2342   2348     1  0.0000000  0.0000000  3
   2340   2339   2342   2343     1  0.0000000  0.6508444  3
   2340   2339   2342   2344     1  0.0000000  0.6508444  3
   2341   2339   2336   2345     1  0.0000000  0.6508444  3
   2341   2339   2342   2348     1  0.0000000  1.0460000  1
   2341   2339   2342   2348     1  0.0000000  0.0000000  3
   2341   2339   2342   2343     1  0.0000000  0.6508444  3
   2341   2339   2342   2344     1  0.0000000  0.6508444  3
   2350   2353   2356   2357     1  0.0000000  0.6508444  3
   2350   2353   2356   2358     1  0.0000000  0.6508444  3
   2351   2350   2353   2356     1  0.0000000  0.6508444  3
   2351   2350   2353   2354     1  0.0000000  0.6508444  3
   2351   2350   2353   2355     1  0.0000000  0.6508444  3
   2351   2350   2359   2360     1  0.0000000  0.6508444  3
   2351   2350   2359   2361     1  0.0000000  0.6508444  3
   2351   2350   2359   2363     1  0.0000000  0.6508444  3
   2352   2350   2353   2356     1  0.0000000  0.6508444  3
   2352   2350   2353   2354     1  0.0000000  0.6508444  3
   2352   2350   2353   2355     1  0.0000000  0.6508444  3
   2352   2350   2359   2360     1  0.0000000  0.6508444  3
   2352   2350   2359   2361     1  0.0000000  0.6508444  3
   2352   2350   2359   2363     1  0.0000000  0.6508444  3
   2353   2350   2359   2360     1  0.0000000  0.6508444  3
   2353   2350   2359   2361     1  0.0000000  0.6508444  3
   2353   2350   2359   2363     1  0.0000000  0.6508444  3
   2354   2353   2356   2362     1  0.0000000  1.0460000  1
   2354   2353   2356   2362     1  0.0000000  0.0000000  3
   2354   2353   2356   2357     1  0.0000000  0.6508444  3
   2354   2353   2356   2358     1  0.0000000  0.6508444  3
   2354   2353   2350   2359     1  0.0000000  0.6508444  3
   2355   2353   2356   2362     1  0.0000000  1.0460000  1
   2355   2353   2356   2362     1  0.0000000  0.0000000  3
   2355   2353   2356   2357     1  0.0000000  0.6508444  3
   2355   2353   2356   2358     1  0.0000000  0.6508444  3
   2355   2353   2350   2359     1  0.0000000  0.6508444  3
   2364   2367   2370   2371     1  0.0000000  0.6508444  3
   2364   2367   2370   2372     1  0.0000000  0.6508444  3
   2365   2364   2367   2370     1  0.0000000  0.6508444  3
   2365   2364   2367   2368     1  0.0000000  0.6508444  3
   2365   2364   2367   2369     1  0.0000000  0.6508444  3
   2365   2364   2373   2374     1  0.0000000  0.6508444  3
   2365   2364   2373   2375     1  0.0000000  0.6508444  3
   2365   2364   2373   2377     1  0.0000000  0.6508444  3
   2366   2364   2367   2370     1  0.0000000  0.6508444  3
   2366   2364   2367   2368     1  0.0000000  0.6508444  3
   2366   2364   2367   2369     1  0.0000000  0.6508444  3
   2366   2364   2373   2374     1  0.0000000  0.6508444  3
   2366   2364   2373   2375     1  0.0000000  0.6508444  3
   2366   2364   2373   2377     1  0.0000000  0.6508444  3
   2367   2364   2373   2374     1  0.0000000  0.6508444  3
   2367   2364   2373   2375     1  0.0000000  0.6508444  3
   2367   2364   2373   2377     1  0.0000000  0.6508444  3
   2368   2367   2364   2373     1  0.0000000  0.6508444  3
   2368   2367   2370   2376     1  0.0000000  1.0460000  1
   2368   2367   2370   2376     1  0.0000000  0.0000000  3
   2368   2367   2370   2371     1  0.0000000  0.6508444  3
   2368   2367   2370   2372     1  0.0000000  0.6508444  3
   2369   2367   2364   2373     1  0.0000000  0.6508444  3
   2369   2367   2370   2376     1  0.0000000  1.0460000  1
   2369   2367   2370   2376     1  0.0000000  0.0000000  3
   2369   2367   2370   2371     1  0.0000000  0.6508444  3
   2369   2367   2370   2372     1  0.0000000  0.6508444  3
   2378   2381   2384   2385     1  0.0000000  0.6508444  3
   2378   2381   2384   2386     1  0.0000000  0.6508444  3
   2379   2378   2381   2384     1  0.0000000  0.6508444  3
   2379   2378   2381   2382     1  0.0000000  0.6508444  3
   2379   2378   2381   2383     1  0.0000000  0.6508444  3
   2379   2378   2387   2388     1  0.0000000  0.6508444  3
   2379   2378   2387   2389     1  0.0000000  0.6508444  3
   2379   2378   2387   2391     1  0.0000000  0.6508444  3
   2380   2378   2381   2384     1  0.0000000  0.6508444  3
   2380   2378   2381   2382     1  0.0000000  0.6508444  3
   2380   2378   2381   2383     1  0.0000000  0.6508444  3
   2380   2378   2387   2388     1  0.0000000  0.6508444  3
   2380   2378   2387   2389     1  0.0000000  0.6508444  3
   2380   2378   2387   2391     1  0.0000000  0.6508444  3
   2381   2378   2387   2388     1  0.0000000  0.6508444  3
   2381   2378   2387   2389     1  0.0000000  0.6508444  3
   2381   2378   2387   2391     1  0.0000000  0.6508444  3
   2382   2381   2384   2390     1  0.0000000  1.0460000  1
   2382   2381   2384   2390     1  0.0000000  0.0000000  3
   2382   2381   2384   2385     1  0.0000000  0.6508444  3
   2382   2381   2384   2386     1  0.0000000  0.6508444  3
   2382   2381   2378   2387     1  0.0000000  0.6508444  3
   2383   2381   2384   2390     1  0.0000000  1.0460000  1
   2383   2381   2384   2390     1  0.0000000  0.0000000  3
   2383   2381   2384   2385     1  0.0000000  0.6508444  3
   2383   2381   2384   2386     1  0.0000000  0.6508444  3
   2383   2381   2378   2387     1  0.0000000  0.6508444  3
   2392   2395   2398   2399     1  0.0000000  0.6508444  3
   2392   2395   2398   2400     1  0.0000000  0.6508444  3
   2393   2392   2395   2398     1  0.0000000  0.6508444  3
   2393   2392   2395   2396     1  0.0000000  0.6508444  3
   2393   2392   2395   2397     1  0.0000000  0.6508444  3
   2393   2392   2401   2402     1  0.0000000  0.6508444  3
   2393   2392   2401   2403     1  0.0000000  0.6508444  3
   2393   2392   2401   2405     1  0.0000000  0.6508444  3
   2394   2392   2395   2398     1  0.0000000  0.6508444  3
   2394   2392   2395   2396     1  0.0000000  0.6508444  3
   2394   2392   2395   2397     1  0.0000000  0.6508444  3
   2394   2392   2401   2402     1  0.0000000  0.6508444  3
   2394   2392   2401   2403     1  0.0000000  0.6508444  3
   2394   2392   2401   2405     1  0.0000000  0.6508444  3
   2395   2392   2401   2402     1  0.0000000  0.6508444  3
   2395   2392   2401   2403     1  0.0000000  0.6508444  3
   2395   2392   2401   2405     1  0.0000000  0.6508444  3
   2396   2395   2392   2401     1  0.0000000  0.6508444  3
   2396   2395   2398   2404     1  0.0000000  1.0460000  1
   2396   2395   2398   2404     1  0.0000000  0.0000000  3
   2396   2395   2398   2399     1  0.0000000  0.6508444  3
   2396   2395   2398   2400     1  0.0000000  0.6508444  3
   2397   2395   2392   2401     1  0.0000000  0.6508444  3
   2397   2395   2398   2404     1  0.0000000  1.0460000  1
   2397   2395   2398   2404     1  0.0000000  0.0000000  3
   2397   2395   2398   2399     1  0.0000000  0.6508444  3
   2397   2395   2398   2400     1  0.0000000  0.6508444  3
   2406   2409   2412   2413     1  0.0000000  0.6508444  3
   2406   2409   2412   2414     1  0.0000000  0.6508444  3
   2407   2406   2409   2412     1  0.0000000  0.6508444  3
   2407   2406   2409   2410     1  0.0000000  0.6508444  3
   2407   2406   2409   2411     1  0.0000000  0.6508444  3
   2407   2406   2415   2416     1  0.0000000  0.6508444  3
   2407   2406   2415   2417     1  0.0000000  0.6508444  3
   2407   2406   2415   2419     1  0.0000000  0.6508444  3
   2408   2406   2409   2412     1  0.0000000  0.6508444  3
   2408   2406   2409   2410     1  0.0000000  0.6508444  3
   2408   2406   2409   2411     1  0.0000000  0.6508444  3
   2408   2406   2415   2416     1  0.0000000  0.6508444  3
   2408   2406   2415   2417     1  0.0000000  0.6508444  3
   2408   2406   2415   2419     1  0.0000000  0.6508444  3
   2409   2406   2415   2416     1  0.0000000  0.6508444  3
   2409   2406   2415   2417     1  0.0000000  0.6508444  3
   2409   2406   2415   2419     1  0.0000000  0.6508444  3
   2410   2409   2412   2418     1  0.0000000  1.0460000  1
   2410   2409   2412   2418     1  0.0000000  0.0000000  3
   2410   2409   2412   2413     1  0.0000000  0.6508444  3
   2410   2409   2412   2414     1  0.0000000  0.6508444  3
   2410   2409   2406   2415     1  0.0000000  0.6508444  3
   2411   2409   2412   2418     1  0.0000000  1.0460000  1
   2411   2409   2412   2418     1  0.0000000  0.0000000  3
   2411   2409   2412   2413     1  0.0000000  0.6508444  3
   2411   2409   2412   2414     1  0.0000000  0.6508444  3
   2411   2409   2406   2415     1  0.0000000  0.6508444  3
   2420   2423   2426   2427     1  0.0000000  0.6508444  3
   2420   2423   2426   2428     1  0.0000000  0.6508444  3
   2421   2420   2423   2426     1  0.0000000  0.6508444  3
   2421   2420   2423   2424     1  0.0000000  0.6508444  3
   2421   2420   2423   2425     1  0.0000000  0.6508444  3
   2421   2420   2429   2430     1  0.0000000  0.6508444  3
   2421   2420   2429   2431     1  0.0000000  0.6508444  3
   2421   2420   2429   2433     1  0.0000000  0.6508444  3
   2422   2420   2423   2426     1  0.0000000  0.6508444  3
   2422   2420   2423   2424     1  0.0000000  0.6508444  3
   2422   2420   2423   2425     1  0.0000000  0.6508444  3
   2422   2420   2429   2430     1  0.0000000  0.6508444  3
   2422   2420   2429   2431     1  0.0000000  0.6508444  3
   2422   2420   2429   2433     1  0.0000000  0.6508444  3
   2423   2420   2429   2430     1  0.0000000  0.6508444  3
   2423   2420   2429   2431     1  0.0000000  0.6508444  3
   2423   2420   2429   2433     1  0.0000000  0.6508444  3
   2424   2423   2420   2429     1  0.0000000  0.6508444  3
   2424   2423   2426   2432     1  0.0000000  1.0460000  1
   2424   2423   2426   2432     1  0.0000000  0.0000000  3
   2424   2423   2426   2427     1  0.0000000  0.6508444  3
   2424   2423   2426   2428     1  0.0000000  0.6508444  3
   2425   2423   2420   2429     1  0.0000000  0.6508444  3
   2425   2423   2426   2432     1  0.0000000  1.0460000  1
   2425   2423   2426   2432     1  0.0000000  0.0000000  3
   2425   2423   2426   2427     1  0.0000000  0.6508444  3
   2425   2423   2426   2428     1  0.0000000  0.6508444  3
   2434   2437   2440   2441     1  0.0000000  0.6508444  3
   2434   2437   2440   2442     1  0.0000000  0.6508444  3
   2435   2434   2437   2440     1  0.0000000  0.6508444  3
   2435   2434   2437   2438     1  0.0000000  0.6508444  3
   2435   2434   2437   2439     1  0.0000000  0.6508444  3
   2435   2434   2443   2444     1  0.0000000  0.6508444  3
   2435   2434   2443   2445     1  0.0000000  0.6508444  3
   2435   2434   2443   2447     1  0.0000000  0.6508444  3
   2436   2434   2437   2440     1  0.0000000  0.6508444  3
   2436   2434   2437   2438     1  0.0000000  0.6508444  3
   2436   2434   2437   2439     1  0.0000000  0.6508444  3
   2436   2434   2443   2444     1  0.0000000  0.6508444  3
   2436   2434   2443   2445     1  0.0000000  0.6508444  3
   2436   2434   2443   2447     1  0.0000000  0.6508444  3
   2437   2434   2443   2444     1  0.0000000  0.6508444  3
   2437   2434   2443   2445     1  0.0000000  0.6508444  3
   2437   2434   2443   2447     1  0.0000000  0.6508444  3
   2438   2437   2440   2446     1  0.0000000  1.0460000  1
   2438   2437   2440   2446     1  0.0000000  0.0000000  3
   2438   2437   2440   2441     1  0.0000000  0.6508444  3
   2438   2437   2440   2442     1  0.0000000  0.6508444  3
   2438   2437   2434   2443     1  0.0000000  0.6508444  3
   2439   2437   2440   2446     1  0.0000000  1.0460000  1
   2439   2437   2440   2446     1  0.0000000  0.0000000  3
   2439   2437   2440   2441     1  0.0000000  0.6508444  3
   2439   2437   2440   2442     1  0.0000000  0.6508444  3
   2439   2437   2434   2443     1  0.0000000  0.6508444  3
   2448   2451   2454   2455     1  0.0000000  0.6508444  3
   2448   2451   2454   2456     1  0.0000000  0.6508444  3
   2449   2448   2451   2454     1  0.0000000  0.6508444  3
   2449   2448   2451   2452     1  0.0000000  0.6508444  3
   2449   2448   2451   2453     1  0.0000000  0.6508444  3
   2449   2448   2457   2458     1  0.0000000  0.6508444  3
   2449   2448   2457   2459     1  0.0000000  0.6508444  3
   2449   2448   2457   2461     1  0.0000000  0.6508444  3
   2450   2448   2451   2454     1  0.0000000  0.6508444  3
   2450   2448   2451   2452     1  0.0000000  0.6508444  3
   2450   2448   2451   2453     1  0.0000000  0.6508444  3
   2450   2448   2457   2458     1  0.0000000  0.6508444  3
   2450   2448   2457   2459     1  0.0000000  0.6508444  3
   2450   2448   2457   2461     1  0.0000000  0.6508444  3
   2451   2448   2457   2458     1  0.0000000  0.6508444  3
   2451   2448   2457   2459     1  0.0000000  0.6508444  3
   2451   2448   2457   2461     1  0.0000000  0.6508444  3
   2452   2451   2448   2457     1  0.0000000  0.6508444  3
   2452   2451   2454   2460     1  0.0000000  1.0460000  1
   2452   2451   2454   2460     1  0.0000000  0.0000000  3
   2452   2451   2454   2455     1  0.0000000  0.6508444  3
   2452   2451   2454   2456     1  0.0000000  0.6508444  3
   2453   2451   2448   2457     1  0.0000000  0.6508444  3
   2453   2451   2454   2460     1  0.0000000  1.0460000  1
   2453   2451   2454   2460     1  0.0000000  0.0000000  3
   2453   2451   2454   2455     1  0.0000000  0.6508444  3
   2453   2451   2454   2456     1  0.0000000  0.6508444  3
   2462   2465   2468   2469     1  0.0000000  0.6508444  3
   2462   2465   2468   2470     1  0.0000000  0.6508444  3
   2463   2462   2465   2468     1  0.0000000  0.6508444  3
   2463   2462   2465   2466     1  0.0000000  0.6508444  3
   2463   2462   2465   2467     1  0.0000000  0.6508444  3
   2463   2462   2471   2472     1  0.0000000  0.6508444  3
   2463   2462   2471   2473     1  0.0000000  0.6508444  3
   2463   2462   2471   2475     1  0.0000000  0.6508444  3
   2464   2462   2465   2468     1  0.0000000  0.6508444  3
   2464   2462   2465   2466     1  0.0000000  0.6508444  3
   2464   2462   2465   2467     1  0.0000000  0.6508444  3
   2464   2462   2471   2472     1  0.0000000  0.6508444  3
   2464   2462   2471   2473     1  0.0000000  0.6508444  3
   2464   2462   2471   2475     1  0.0000000  0.6508444  3
   2465   2462   2471   2472     1  0.0000000  0.6508444  3
   2465   2462   2471   2473     1  0.0000000  0.6508444  3
   2465   2462   2471   2475     1  0.0000000  0.6508444  3
   2466   2465   2468   2474     1  0.0000000  1.0460000  1
   2466   2465   2468   2474     1  0.0000000  0.0000000  3
   2466   2465   2468   2469     1  0.0000000  0.6508444  3
   2466   2465   2468   2470     1  0.0000000  0.6508444  3
   2466   2465   2462   2471     1  0.0000000  0.6508444  3
   2467   2465   2468   2474     1  0.0000000  1.0460000  1
   2467   2465   2468   2474     1  0.0000000  0.0000000  3
   2467   2465   2468   2469     1  0.0000000  0.6508444  3
   2467   2465   2468   2470     1  0.0000000  0.6508444  3
   2467   2465   2462   2471     1  0.0000000  0.6508444  3
   2476   2479   2482   2483     1  0.0000000  0.6508444  3
   2476   2479   2482   2484     1  0.0000000  0.6508444  3
   2477   2476   2479   2482     1  0.0000000  0.6508444  3
   2477   2476   2479   2480     1  0.0000000  0.6508444  3
   2477   2476   2479   2481     1  0.0000000  0.6508444  3
   2477   2476   2485   2486     1  0.0000000  0.6508444  3
   2477   2476   2485   2487     1  0.0000000  0.6508444  3
   2477   2476   2485   2489     1  0.0000000  0.6508444  3
   2478   2476   2479   2482     1  0.0000000  0.6508444  3
   2478   2476   2479   2480     1  0.0000000  0.6508444  3
   2478   2476   2479   2481     1  0.0000000  0.6508444  3
   2478   2476   2485   2486     1  0.0000000  0.6508444  3
   2478   2476   2485   2487     1  0.0000000  0.6508444  3
   2478   2476   2485   2489     1  0.0000000  0.6508444  3
   2479   2476   2485   2486     1  0.0000000  0.6508444  3
   2479   2476   2485   2487     1  0.0000000  0.6508444  3
   2479   2476   2485   2489     1  0.0000000  0.6508444  3
   2480   2479   2476   2485     1  0.0000000  0.6508444  3
   2480   2479   2482   2488     1  0.0000000  1.0460000  1
   2480   2479   2482   2488     1  0.0000000  0.0000000  3
   2480   2479   2482   2483     1  0.0000000  0.6508444  3
   2480   2479   2482   2484     1  0.0000000  0.6508444  3
   2481   2479   2476   2485     1  0.0000000  0.6508444  3
   2481   2479   2482   2488     1  0.0000000  1.0460000  1
   2481   2479   2482   2488     1  0.0000000  0.0000000  3
   2481   2479   2482   2483     1  0.0000000  0.6508444  3
   2481   2479   2482   2484     1  0.0000000  0.6508444  3
   2490   2493   2496   2497     1  0.0000000  0.6508444  3
   2490   2493   2496   2498     1  0.0000000  0.6508444  3
   2491   2490   2493   2496     1  0.0000000  0.6508444  3
   2491   2490   2493   2494     1  0.0000000  0.6508444  3
   2491   2490   2493   2495     1  0.0000000  0.6508444  3
   2491   2490   2499   2500     1  0.0000000  0.6508444  3
   2491   2490   2499   2501     1  0.0000000  0.6508444  3
   2491   2490   2499   2503     1  0.0000000  0.6508444  3
   2492   2490   2493   2496     1  0.0000000  0.6508444  3
   2492   2490   2493   2494     1  0.0000000  0.6508444  3
   2492   2490   2493   2495     1  0.0000000  0.6508444  3
   2492   2490   2499   2500     1  0.0000000  0.6508444  3
   2492   2490   2499   2501     1  0.0000000  0.6508444  3
   2492   2490   2499   2503     1  0.0000000  0.6508444  3
   2493   2490   2499   2500     1  0.0000000  0.6508444  3
   2493   2490   2499   2501     1  0.0000000  0.6508444  3
   2493   2490   2499   2503     1  0.0000000  0.6508444  3
   2494   2493   2496   2502     1  0.0000000  1.0460000  1
   2494   2493   2496   2502     1  0.0000000  0.0000000  3
   2494   2493   2496   2497     1  0.0000000  0.6508444  3
   2494   2493   2496   2498     1  0.0000000  0.6508444  3
   2494   2493   2490   2499     1  0.0000000  0.6508444  3
   2495   2493   2496   2502     1  0.0000000  1.0460000  1
   2495   2493   2496   2502     1  0.0000000  0.0000000  3
   2495   2493   2496   2497     1  0.0000000  0.6508444  3
   2495   2493   2496   2498     1  0.0000000  0.6508444  3
   2495   2493   2490   2499     1  0.0000000  0.6508444  3
   2504   2507   2510   2511     1  0.0000000  0.6508444  3
   2504   2507   2510   2512     1  0.0000000  0.6508444  3
   2505   2504   2507   2510     1  0.0000000  0.6508444  3
   2505   2504   2507   2508     1  0.0000000  0.6508444  3
   2505   2504   2507   2509     1  0.0000000  0.6508444  3
   2505   2504   2513   2514     1  0.0000000  0.6508444  3
   2505   2504   2513   2515     1  0.0000000  0.6508444  3
   2505   2504   2513   2517     1  0.0000000  0.6508444  3
   2506   2504   2507   2510     1  0.0000000  0.6508444  3
   2506   2504   2507   2508     1  0.0000000  0.6508444  3
   2506   2504   2507   2509     1  0.0000000  0.6508444  3
   2506   2504   2513   2514     1  0.0000000  0.6508444  3
   2506   2504   2513   2515     1  0.0000000  0.6508444  3
   2506   2504   2513   2517     1  0.0000000  0.6508444  3
   2507   2504   2513   2514     1  0.0000000  0.6508444  3
   2507   2504   2513   2515     1  0.0000000  0.6508444  3
   2507   2504   2513   2517     1  0.0000000  0.6508444  3
   2508   2507   2504   2513     1  0.0000000  0.6508444  3
   2508   2507   2510   2516     1  0.0000000  1.0460000  1
   2508   2507   2510   2516     1  0.0000000  0.0000000  3
   2508   2507   2510   2511     1  0.0000000  0.6508444  3
   2508   2507   2510   2512     1  0.0000000  0.6508444  3
   2509   2507   2504   2513     1  0.0000000  0.6508444  3
   2509   2507   2510   2516     1  0.0000000  1.0460000  1
   2509   2507   2510   2516     1  0.0000000  0.0000000  3
   2509   2507   2510   2511     1  0.0000000  0.6508444  3
   2509   2507   2510   2512     1  0.0000000  0.6508444  3
   2518   2521   2524   2525     1  0.0000000  0.6508444  3
   2518   2521   2524   2526     1  0.0000000  0.6508444  3
   2519   2518   2521   2524     1  0.0000000  0.6508444  3
   2519   2518   2521   2522     1  0.0000000  0.6508444  3
   2519   2518   2521   2523     1  0.0000000  0.6508444  3
   2519   2518   2527   2528     1  0.0000000  0.6508444  3
   2519   2518   2527   2529     1  0.0000000  0.6508444  3
   2519   2518   2527   2531     1  0.0000000  0.6508444  3
   2520   2518   2521   2524     1  0.0000000  0.6508444  3
   2520   2518   2521   2522     1  0.0000000  0.6508444  3
   2520   2518   2521   2523     1  0.0000000  0.6508444  3
   2520   2518   2527   2528     1  0.0000000  0.6508444  3
   2520   2518   2527   2529     1  0.0000000  0.6508444  3
   2520   2518   2527   2531     1  0.0000000  0.6508444  3
   2521   2518   2527   2528     1  0.0000000  0.6508444  3
   2521   2518   2527   2529     1  0.0000000  0.6508444  3
   2521   2518   2527   2531     1  0.0000000  0.6508444  3
   2522   2521   2524   2530     1  0.0000000  1.0460000  1
   2522   2521   2524   2530     1  0.0000000  0.0000000  3
   2522   2521   2524   2525     1  0.0000000  0.6508444  3
   2522   2521   2524   2526     1  0.0000000  0.6508444  3
   2522   2521   2518   2527     1  0.0000000  0.6508444  3
   2523   2521   2524   2530     1  0.0000000  1.0460000  1
   2523   2521   2524   2530     1  0.0000000  0.0000000  3
   2523   2521   2524   2525     1  0.0000000  0.6508444  3
   2523   2521   2524   2526     1  0.0000000  0.6508444  3
   2523   2521   2518   2527     1  0.0000000  0.6508444  3
   2532   2535   2538   2539     1  0.0000000  0.6508444  3
   2532   2535   2538   2540     1  0.0000000  0.6508444  3
   2533   2532   2535   2538     1  0.0000000  0.6508444  3
   2533   2532   2535   2536     1  0.0000000  0.6508444  3
   2533   2532   2535   2537     1  0.0000000  0.6508444  3
   2533   2532   2541   2542     1  0.0000000  0.6508444  3
   2533   2532   2541   2543     1  0.0000000  0.6508444  3
   2533   2532   2541   2545     1  0.0000000  0.6508444  3
   2534   2532   2535   2538     1  0.0000000  0.6508444  3
   2534   2532   2535   2536     1  0.0000000  0.6508444  3
   2534   2532   2535   2537     1  0.0000000  0.6508444  3
   2534   2532   2541   2542     1  0.0000000  0.6508444  3
   2534   2532   2541   2543     1  0.0000000  0.6508444  3
   2534   2532   2541   2545     1  0.0000000  0.6508444  3
   2535   2532   2541   2542     1  0.0000000  0.6508444  3
   2535   2532   2541   2543     1  0.0000000  0.6508444  3
   2535   2532   2541   2545     1  0.0000000  0.6508444  3
   2536   2535   2532   2541     1  0.0000000  0.6508444  3
   2536   2535   2538   2544     1  0.0000000  1.0460000  1
   2536   2535   2538   2544     1  0.0000000  0.0000000  3
   2536   2535   2538   2539     1  0.0000000  0.6508444  3
   2536   2535   2538   2540     1  0.0000000  0.6508444  3
   2537   2535   2532   2541     1  0.0000000  0.6508444  3
   2537   2535   2538   2544     1  0.0000000  1.0460000  1
   2537   2535   2538   2544     1  0.0000000  0.0000000  3
   2537   2535   2538   2539     1  0.0000000  0.6508444  3
   2537   2535   2538   2540     1  0.0000000  0.6508444  3
   2546   2549   2552   2553     1  0.0000000  0.6508444  3
   2546   2549   2552   2554     1  0.0000000  0.6508444  3
   2547   2546   2549   2552     1  0.0000000  0.6508444  3
   2547   2546   2549   2550     1  0.0000000  0.6508444  3
   2547   2546   2549   2551     1  0.0000000  0.6508444  3
   2547   2546   2555   2556     1  0.0000000  0.6508444  3
   2547   2546   2555   2557     1  0.0000000  0.6508444  3
   2547   2546   2555   2559     1  0.0000000  0.6508444  3
   2548   2546   2549   2552     1  0.0000000  0.6508444  3
   2548   2546   2549   2550     1  0.0000000  0.6508444  3
   2548   2546   2549   2551     1  0.0000000  0.6508444  3
   2548   2546   2555   2556     1  0.0000000  0.6508444  3
   2548   2546   2555   2557     1  0.0000000  0.6508444  3
   2548   2546   2555   2559     1  0.0000000  0.6508444  3
   2549   2546   2555   2556     1  0.0000000  0.6508444  3
   2549   2546   2555   2557     1  0.0000000  0.6508444  3
   2549   2546   2555   2559     1  0.0000000  0.6508444  3
   2550   2549   2552   2558     1  0.0000000  1.0460000  1
   2550   2549   2552   2558     1  0.0000000  0.0000000  3
   2550   2549   2552   2553     1  0.0000000  0.6508444  3
   2550   2549   2552   2554     1  0.0000000  0.6508444  3
   2550   2549   2546   2555     1  0.0000000  0.6508444  3
   2551   2549   2552   2558     1  0.0000000  1.0460000  1
   2551   2549   2552   2558     1  0.0000000  0.0000000  3
   2551   2549   2552   2553     1  0.0000000  0.6508444  3
   2551   2549   2552   2554     1  0.0000000  0.6508444  3
   2551   2549   2546   2555     1  0.0000000  0.6508444  3
   2560   2563   2566   2567     1  0.0000000  0.6508444  3
   2560   2563   2566   2568     1  0.0000000  0.6508444  3
   2561   2560   2563   2566     1  0.0000000  0.6508444  3
   2561   2560   2563   2564     1  0.0000000  0.6508444  3
   2561   2560   2563   2565     1  0.0000000  0.6508444  3
   2561   2560   2569   2570     1  0.0000000  0.6508444  3
   2561   2560   2569   2571     1  0.0000000  0.6508444  3
   2561   2560   2569   2573     1  0.0000000  0.6508444  3
   2562   2560   2563   2566     1  0.0000000  0.6508444  3
   2562   2560   2563   2564     1  0.0000000  0.6508444  3
   2562   2560   2563   2565     1  0.0000000  0.6508444  3
   2562   2560   2569   2570     1  0.0000000  0.6508444  3
   2562   2560   2569   2571     1  0.0000000  0.6508444  3
   2562   2560   2569   2573     1  0.0000000  0.6508444  3
   2563   2560   2569   2570     1  0.0000000  0.6508444  3
   2563   2560   2569   2571     1  0.0000000  0.6508444  3
   2563   2560   2569   2573     1  0.0000000  0.6508444  3
   2564   2563   2560   2569     1  0.0000000  0.6508444  3
   2564   2563   2566   2572     1  0.0000000  1.0460000  1
   2564   2563   2566   2572     1  0.0000000  0.0000000  3
   2564   2563   2566   2567     1  0.0000000  0.6508444  3
   2564   2563   2566   2568     1  0.0000000  0.6508444  3
   2565   2563   2560   2569     1  0.0000000  0.6508444  3
   2565   2563   2566   2572     1  0.0000000  1.0460000  1
   2565   2563   2566   2572     1  0.0000000  0.0000000  3
   2565   2563   2566   2567     1  0.0000000  0.6508444  3
   2565   2563   2566   2568     1  0.0000000  0.6508444  3
   2574   2577   2580   2581     1  0.0000000  0.6508444  3
   2574   2577   2580   2582     1  0.0000000  0.6508444  3
   2575   2574   2577   2580     1  0.0000000  0.6508444  3
   2575   2574   2577   2578     1  0.0000000  0.6508444  3
   2575   2574   2577   2579     1  0.0000000  0.6508444  3
   2575   2574   2583   2584     1  0.0000000  0.6508444  3
   2575   2574   2583   2585     1  0.0000000  0.6508444  3
   2575   2574   2583   2587     1  0.0000000  0.6508444  3
   2576   2574   2577   2580     1  0.0000000  0.6508444  3
   2576   2574   2577   2578     1  0.0000000  0.6508444  3
   2576   2574   2577   2579     1  0.0000000  0.6508444  3
   2576   2574   2583   2584     1  0.0000000  0.6508444  3
   2576   2574   2583   2585     1  0.0000000  0.6508444  3
   2576   2574   2583   2587     1  0.0000000  0.6508444  3
   2577   2574   2583   2584     1  0.0000000  0.6508444  3
   2577   2574   2583   2585     1  0.0000000  0.6508444  3
   2577   2574   2583   2587     1  0.0000000  0.6508444  3
   2578   2577   2580   2586     1  0.0000000  1.0460000  1
   2578   2577   2580   2586     1  0.0000000  0.0000000  3
   2578   2577   2580   2581     1  0.0000000  0.6508444  3
   2578   2577   2580   2582     1  0.0000000  0.6508444  3
   2578   2577   2574   2583     1  0.0000000  0.6508444  3
   2579   2577   2580   2586     1  0.0000000  1.0460000  1
   2579   2577   2580   2586     1  0.0000000  0.0000000  3
   2579   2577   2580   2581     1  0.0000000  0.6508444  3
   2579   2577   2580   2582     1  0.0000000  0.6508444  3
   2579   2577   2574   2583     1  0.0000000  0.6508444  3
   2588   2591   2594   2595     1  0.0000000  0.6508444  3
   2588   2591   2594   2596     1  0.0000000  0.6508444  3
   2589   2588   2591   2594     1  0.0000000  0.6508444  3
   2589   2588   2591   2592     1  0.0000000  0.6508444  3
   2589   2588   2591   2593     1  0.0000000  0.6508444  3
   2589   2588   2597   2598     1  0.0000000  0.6508444  3
   2589   2588   2597   2599     1  0.0000000  0.6508444  3
   2589   2588   2597   2601     1  0.0000000  0.6508444  3
   2590   2588   2591   2594     1  0.0000000  0.6508444  3
   2590   2588   2591   2592     1  0.0000000  0.6508444  3
   2590   2588   2591   2593     1  0.0000000  0.6508444  3
   2590   2588   2597   2598     1  0.0000000  0.6508444  3
   2590   2588   2597   2599     1  0.0000000  0.6508444  3
   2590   2588   2597   2601     1  0.0000000  0.6508444  3
   2591   2588   2597   2598     1  0.0000000  0.6508444  3
   2591   2588   2597   2599     1  0.0000000  0.6508444  3
   2591   2588   2597   2601     1  0.0000000  0.6508444  3
   2592   2591   2588   2597     1  0.0000000  0.6508444  3
   2592   2591   2594   2600     1  0.0000000  1.0460000  1
   2592   2591   2594   2600     1  0.0000000  0.0000000  3
   2592   2591   2594   2595     1  0.0000000  0.6508444  3
   2592   2591   2594   2596     1  0.0000000  0.6508444  3
   2593   2591   2588   2597     1  0.0000000  0.6508444  3
   2593   2591   2594   2600     1  0.0000000  1.0460000  1
   2593   2591   2594   2600     1  0.0000000  0.0000000  3
   2593   2591   2594   2595     1  0.0000000  0.6508444  3
   2593   2591   2594   2596     1  0.0000000  0.6508444  3
   2602   2605   2608   2609     1  0.0000000  0.6508444  3
   2602   2605   2608   2610     1  0.0000000  0.6508444  3
   2603   2602   2605   2608     1  0.0000000  0.6508444  3
   2603   2602   2605   2606     1  0.0000000  0.6508444  3
   2603   2602   2605   2607     1  0.0000000  0.6508444  3
   2603   2602   2611   2612     1  0.0000000  0.6508444  3
   2603   2602   2611   2613     1  0.0000000  0.6508444  3
   2603   2602   2611   2615     1  0.0000000  0.6508444  3
   2604   2602   2605   2608     1  0.0000000  0.6508444  3
   2604   2602   2605   2606     1  0.0000000  0.6508444  3
   2604   2602   2605   2607     1  0.0000000  0.6508444  3
   2604   2602   2611   2612     1  0.0000000  0.6508444  3
   2604   2602   2611   2613     1  0.0000000  0.6508444  3
   2604   2602   2611   2615     1  0.0000000  0.6508444  3
   2605   2602   2611   2612     1  0.0000000  0.6508444  3
   2605   2602   2611   2613     1  0.0000000  0.6508444  3
   2605   2602   2611   2615     1  0.0000000  0.6508444  3
   2606   2605   2608   2614     1  0.0000000  1.0460000  1
   2606   2605   2608   2614     1  0.0000000  0.0000000  3
   2606   2605   2608   2609     1  0.0000000  0.6508444  3
   2606   2605   2608   2610     1  0.0000000  0.6508444  3
   2606   2605   2602   2611     1  0.0000000  0.6508444  3
   2607   2605   2608   2614     1  0.0000000  1.0460000  1
   2607   2605   2608   2614     1  0.0000000  0.0000000  3
   2607   2605   2608   2609     1  0.0000000  0.6508444  3
   2607   2605   2608   2610     1  0.0000000  0.6508444  3
   2607   2605   2602   2611     1  0.0000000  0.6508444  3
   2616   2619   2622   2623     1  0.0000000  0.6508444  3
   2616   2619   2622   2624     1  0.0000000  0.6508444  3
   2617   2616   2619   2622     1  0.0000000  0.6508444  3
   2617   2616   2619   2620     1  0.0000000  0.6508444  3
   2617   2616   2619   2621     1  0.0000000  0.6508444  3
   2617   2616   2625   2626     1  0.0000000  0.6508444  3
   2617   2616   2625   2627     1  0.0000000  0.6508444  3
   2617   2616   2625   2629     1  0.0000000  0.6508444  3
   2618   2616   2619   2622     1  0.0000000  0.6508444  3
   2618   2616   2619   2620     1  0.0000000  0.6508444  3
   2618   2616   2619   2621     1  0.0000000  0.6508444  3
   2618   2616   2625   2626     1  0.0000000  0.6508444  3
   2618   2616   2625   2627     1  0.0000000  0.6508444  3
   2618   2616   2625   2629     1  0.0000000  0.6508444  3
   2619   2616   2625   2626     1  0.0000000  0.6508444  3
   2619   2616   2625   2627     1  0.0000000  0.6508444  3
   2619   2616   2625   2629     1  0.0000000  0.6508444  3
   2620   2619   2616   2625     1  0.0000000  0.6508444  3
   2620   2619   2622   2628     1  0.0000000  1.0460000  1
   2620   2619   2622   2628     1  0.0000000  0.0000000  3
   2620   2619   2622   2623     1  0.0000000  0.6508444  3
   2620   2619   2622   2624     1  0.0000000  0.6508444  3
   2621   2619   2616   2625     1  0.0000000  0.6508444  3
   2621   2619   2622   2628     1  0.0000000  1.0460000  1
   2621   2619   2622   2628     1  0.0000000  0.0000000  3
   2621   2619   2622   2623     1  0.0000000  0.6508444  3
   2621   2619   2622   2624     1  0.0000000  0.6508444  3
   2630   2633   2636   2637     1  0.0000000  0.6508444  3
   2630   2633   2636   2638     1  0.0000000  0.6508444  3
   2631   2630   2633   2636     1  0.0000000  0.6508444  3
   2631   2630   2633   2634     1  0.0000000  0.6508444  3
   2631   2630   2633   2635     1  0.0000000  0.6508444  3
   2631   2630   2639   2640     1  0.0000000  0.6508444  3
   2631   2630   2639   2641     1  0.0000000  0.6508444  3
   2631   2630   2639   2643     1  0.0000000  0.6508444  3
   2632   2630   2633   2636     1  0.0000000  0.6508444  3
   2632   2630   2633   2634     1  0.0000000  0.6508444  3
   2632   2630   2633   2635     1  0.0000000  0.6508444  3
   2632   2630   2639   2640     1  0.0000000  0.6508444  3
   2632   2630   2639   2641     1  0.0000000  0.6508444  3
   2632   2630   2639   2643     1  0.0000000  0.6508444  3
   2633   2630   2639   2640     1  0.0000000  0.6508444  3
   2633   2630   2639   2641     1  0.0000000  0.6508444  3
   2633   2630   2639   2643     1  0.0000000  0.6508444  3
   2634   2633   2636   2642     1  0.0000000  1.0460000  1
   2634   2633   2636   2642     1  0.0000000  0.0000000  3
   2634   2633   2636   2637     1  0.0000000  0.6508444  3
   2634   2633   2636   2638     1  0.0000000  0.6508444  3
   2634   2633   2630   2639     1  0.0000000  0.6508444  3
   2635   2633   2636   2642     1  0.0000000  1.0460000  1
   2635   2633   2636   2642     1  0.0000000  0.0000000  3
   2635   2633   2636   2637     1  0.0000000  0.6508444  3
   2635   2633   2636   2638     1  0.0000000  0.6508444  3
   2635   2633   2630   2639     1  0.0000000  0.6508444  3
   2644   2647   2650   2651     1  0.0000000  0.6508444  3
   2644   2647   2650   2652     1  0.0000000  0.6508444  3
   2645   2644   2647   2650     1  0.0000000  0.6508444  3
   2645   2644   2647   2648     1  0.0000000  0.6508444  3
   2645   2644   2647   2649     1  0.0000000  0.6508444  3
   2645   2644   2653   2654     1  0.0000000  0.6508444  3
   2645   2644   2653   2655     1  0.0000000  0.6508444  3
   2645   2644   2653   2657     1  0.0000000  0.6508444  3
   2646   2644   2647   2650     1  0.0000000  0.6508444  3
   2646   2644   2647   2648     1  0.0000000  0.6508444  3
   2646   2644   2647   2649     1  0.0000000  0.6508444  3
   2646   2644   2653   2654     1  0.0000000  0.6508444  3
   2646   2644   2653   2655     1  0.0000000  0.6508444  3
   2646   2644   2653   2657     1  0.0000000  0.6508444  3
   2647   2644   2653   2654     1  0.0000000  0.6508444  3
   2647   2644   2653   2655     1  0.0000000  0.6508444  3
   2647   2644   2653   2657     1  0.0000000  0.6508444  3
   2648   2647   2644   2653     1  0.0000000  0.6508444  3
   2648   2647   2650   2656     1  0.0000000  1.0460000  1
   2648   2647   2650   2656     1  0.0000000  0.0000000  3
   2648   2647   2650   2651     1  0.0000000  0.6508444  3
   2648   2647   2650   2652     1  0.0000000  0.6508444  3
   2649   2647   2644   2653     1  0.0000000  0.6508444  3
   2649   2647   2650   2656     1  0.0000000  1.0460000  1
   2649   2647   2650   2656     1  0.0000000  0.0000000  3
   2649   2647   2650   2651     1  0.0000000  0.6508444  3
   2649   2647   2650   2652     1  0.0000000  0.6508444  3
   2658   2661   2664   2665     1  0.0000000  0.6508444  3
   2658   2661   2664   2666     1  0.0000000  0.6508444  3
   2659   2658   2661   2664     1  0.0000000  0.6508444  3
   2659   2658   2661   2662     1  0.0000000  0.6508444  3
   2659   2658   2661   2663     1  0.0000000  0.6508444  3
   2659   2658   2667   2668     1  0.0000000  0.6508444  3
   2659   2658   2667   2669     1  0.0000000  0.6508444  3
   2659   2658   2667   2671     1  0.0000000  0.6508444  3
   2660   2658   2661   2664     1  0.0000000  0.6508444  3
   2660   2658   2661   2662     1  0.0000000  0.6508444  3
   2660   2658   2661   2663     1  0.0000000  0.6508444  3
   2660   2658   2667   2668     1  0.0000000  0.6508444  3
   2660   2658   2667   2669     1  0.0000000  0.6508444  3
   2660   2658   2667   2671     1  0.0000000  0.6508444  3
   2661   2658   2667   2668     1  0.0000000  0.6508444  3
   2661   2658   2667   2669     1  0.0000000  0.6508444  3
   2661   2658   2667   2671     1  0.0000000  0.6508444  3
   2662   2661   2664   2670     1  0.0000000  1.0460000  1
   2662   2661   2664   2670     1  0.0000000  0.0000000  3
   2662   2661   2664   2665     1  0.0000000  0.6508444  3
   2662   2661   2664   2666     1  0.0000000  0.6508444  3
   2662   2661   2658   2667     1  0.0000000  0.6508444  3
   2663   2661   2664   2670     1  0.0000000  1.0460000  1
   2663   2661   2664   2670     1  0.0000000  0.0000000  3
   2663   2661   2664   2665     1  0.0000000  0.6508444  3
   2663   2661   2664   2666     1  0.0000000  0.6508444  3
   2663   2661   2658   2667     1  0.0000000  0.6508444  3
   2672   2675   2678   2679     1  0.0000000  0.6508444  3
   2672   2675   2678   2680     1  0.0000000  0.6508444  3
   2673   2672   2675   2678     1  0.0000000  0.6508444  3
   2673   2672   2675   2676     1  0.0000000  0.6508444  3
   2673   2672   2675   2677     1  0.0000000  0.6508444  3
   2673   2672   2681   2682     1  0.0000000  0.6508444  3
   2673   2672   2681   2683     1  0.0000000  0.6508444  3
   2673   2672   2681   2685     1  0.0000000  0.6508444  3
   2674   2672   2675   2678     1  0.0000000  0.6508444  3
   2674   2672   2675   2676     1  0.0000000  0.6508444  3
   2674   2672   2675   2677     1  0.0000000  0.6508444  3
   2674   2672   2681   2682     1  0.0000000  0.6508444  3
   2674   2672   2681   2683     1  0.0000000  0.6508444  3
   2674   2672   2681   2685     1  0.0000000  0.6508444  3
   2675   2672   2681   2682     1  0.0000000  0.6508444  3
   2675   2672   2681   2683     1  0.0000000  0.6508444  3
   2675   2672   2681   2685     1  0.0000000  0.6508444  3
   2676   2675   2672   2681     1  0.0000000  0.6508444  3
   2676   2675   2678   2684     1  0.0000000  1.0460000  1
   2676   2675   2678   2684     1  0.0000000  0.0000000  3
   2676   2675   2678   2679     1  0.0000000  0.6508444  3
   2676   2675   2678   2680     1  0.0000000  0.6508444  3
   2677   2675   2672   2681     1  0.0000000  0.6508444  3
   2677   2675   2678   2684     1  0.0000000  1.0460000  1
   2677   2675   2678   2684     1  0.0000000  0.0000000  3
   2677   2675   2678   2679     1  0.0000000  0.6508444  3
   2677   2675   2678   2680     1  0.0000000  0.6508444  3
   2686   2689   2692   2693     1  0.0000000  0.6508444  3
   2686   2689   2692   2694     1  0.0000000  0.6508444  3
   2687   2686   2689   2692     1  0.0000000  0.6508444  3
   2687   2686   2689   2690     1  0.0000000  0.6508444  3
   2687   2686   2689   2691     1  0.0000000  0.6508444  3
   2687   2686   2695   2696     1  0.0000000  0.6508444  3
   2687   2686   2695   2697     1  0.0000000  0.6508444  3
   2687   2686   2695   2699     1  0.0000000  0.6508444  3
   2688   2686   2689   2692     1  0.0000000  0.6508444  3
   2688   2686   2689   2690     1  0.0000000  0.6508444  3
   2688   2686   2689   2691     1  0.0000000  0.6508444  3
   2688   2686   2695   2696     1  0.0000000  0.6508444  3
   2688   2686   2695   2697     1  0.0000000  0.6508444  3
   2688   2686   2695   2699     1  0.0000000  0.6508444  3
   2689   2686   2695   2696     1  0.0000000  0.6508444  3
   2689   2686   2695   2697     1  0.0000000  0.6508444  3
   2689   2686   2695   2699     1  0.0000000  0.6508444  3
   2690   2689   2692   2698     1  0.0000000  1.0460000  1
   2690   2689   2692   2698     1  0.0000000  0.0000000  3
   2690   2689   2692   2693     1  0.0000000  0.6508444  3
   2690   2689   2692   2694     1  0.0000000  0.6508444  3
   2690   2689   2686   2695     1  0.0000000  0.6508444  3
   2691   2689   2692   2698     1  0.0000000  1.0460000  1
   2691   2689   2692   2698     1  0.0000000  0.0000000  3
   2691   2689   2692   2693     1  0.0000000  0.6508444  3
   2691   2689   2692   2694     1  0.0000000  0.6508444  3
   2691   2689   2686   2695     1  0.0000000  0.6508444  3
   2700   2703   2706   2707     1  0.0000000  0.6508444  3
   2700   2703   2706   2708     1  0.0000000  0.6508444  3
   2701   2700   2703   2706     1  0.0000000  0.6508444  3
   2701   2700   2703   2704     1  0.0000000  0.6508444  3
   2701   2700   2703   2705     1  0.0000000  0.6508444  3
   2701   2700   2709   2710     1  0.0000000  0.6508444  3
   2701   2700   2709   2711     1  0.0000000  0.6508444  3
   2701   2700   2709   2713     1  0.0000000  0.6508444  3
   2702   2700   2703   2706     1  0.0000000  0.6508444  3
   2702   2700   2703   2704     1  0.0000000  0.6508444  3
   2702   2700   2703   2705     1  0.0000000  0.6508444  3
   2702   2700   2709   2710     1  0.0000000  0.6508444  3
   2702   2700   2709   2711     1  0.0000000  0.6508444  3
   2702   2700   2709   2713     1  0.0000000  0.6508444  3
   2703   2700   2709   2710     1  0.0000000  0.6508444  3
   2703   2700   2709   2711     1  0.0000000  0.6508444  3
   2703   2700   2709   2713     1  0.0000000  0.6508444  3
   2704   2703   2700   2709     1  0.0000000  0.6508444  3
   2704   2703   2706   2712     1  0.0000000  1.0460000  1
   2704   2703   2706   2712     1  0.0000000  0.0000000  3
   2704   2703   2706   2707     1  0.0000000  0.6508444  3
   2704   2703   2706   2708     1  0.0000000  0.6508444  3
   2705   2703   2700   2709     1  0.0000000  0.6508444  3
   2705   2703   2706   2712     1  0.0000000  1.0460000  1
   2705   2703   2706   2712     1  0.0000000  0.0000000  3
   2705   2703   2706   2707     1  0.0000000  0.6508444  3
   2705   2703   2706   2708     1  0.0000000  0.6508444  3
   2714   2717   2720   2721     1  0.0000000  0.6508444  3
   2714   2717   2720   2722     1  0.0000000  0.6508444  3
   2715   2714   2717   2720     1  0.0000000  0.6508444  3
   2715   2714   2717   2718     1  0.0000000  0.6508444  3
   2715   2714   2717   2719     1  0.0000000  0.6508444  3
   2715   2714   2723   2724     1  0.0000000  0.6508444  3
   2715   2714   2723   2725     1  0.0000000  0.6508444  3
   2715   2714   2723   2727     1  0.0000000  0.6508444  3
   2716   2714   2717   2720     1  0.0000000  0.6508444  3
   2716   2714   2717   2718     1  0.0000000  0.6508444  3
   2716   2714   2717   2719     1  0.0000000  0.6508444  3
   2716   2714   2723   2724     1  0.0000000  0.6508444  3
   2716   2714   2723   2725     1  0.0000000  0.6508444  3
   2716   2714   2723   2727     1  0.0000000  0.6508444  3
   2717   2714   2723   2724     1  0.0000000  0.6508444  3
   2717   2714   2723   2725     1  0.0000000  0.6508444  3
   2717   2714   2723   2727     1  0.0000000  0.6508444  3
   2718   2717   2720   2726     1  0.0000000  1.0460000  1
   2718   2717   2720   2726     1  0.0000000  0.0000000  3
   2718   2717   2720   2721     1  0.0000000  0.6508444  3
   2718   2717   2720   2722     1  0.0000000  0.6508444  3
   2718   2717   2714   2723     1  0.0000000  0.6508444  3
   2719   2717   2720   2726     1  0.0000000  1.0460000  1
   2719   2717   2720   2726     1  0.0000000  0.0000000  3
   2719   2717   2720   2721     1  0.0000000  0.6508444  3
   2719   2717   2720   2722     1  0.0000000  0.6508444  3
   2719   2717   2714   2723     1  0.0000000  0.6508444  3
   2728   2731   2734   2735     1  0.0000000  0.6508444  3
   2728   2731   2734   2736     1  0.0000000  0.6508444  3
   2729   2728   2731   2734     1  0.0000000  0.6508444  3
   2729   2728   2731   2732     1  0.0000000  0.6508444  3
   2729   2728   2731   2733     1  0.0000000  0.6508444  3
   2729   2728   2737   2738     1  0.0000000  0.6508444  3
   2729   2728   2737   2739     1  0.0000000  0.6508444  3
   2729   2728   2737   2741     1  0.0000000  0.6508444  3
   2730   2728   2731   2734     1  0.0000000  0.6508444  3
   2730   2728   2731   2732     1  0.0000000  0.6508444  3
   2730   2728   2731   2733     1  0.0000000  0.6508444  3
   2730   2728   2737   2738     1  0.0000000  0.6508444  3
   2730   2728   2737   2739     1  0.0000000  0.6508444  3
   2730   2728   2737   2741     1  0.0000000  0.6508444  3
   2731   2728   2737   2738     1  0.0000000  0.6508444  3
   2731   2728   2737   2739     1  0.0000000  0.6508444  3
   2731   2728   2737   2741     1  0.0000000  0.6508444  3
   2732   2731   2728   2737     1  0.0000000  0.6508444  3
   2732   2731   2734   2740     1  0.0000000  1.0460000  1
   2732   2731   2734   2740     1  0.0000000  0.0000000  3
   2732   2731   2734   2735     1  0.0000000  0.6508444  3
   2732   2731   2734   2736     1  0.0000000  0.6508444  3
   2733   2731   2728   2737     1  0.0000000  0.6508444  3
   2733   2731   2734   2740     1  0.0000000  1.0460000  1
   2733   2731   2734   2740     1  0.0000000  0.0000000  3
   2733   2731   2734   2735     1  0.0000000  0.6508444  3
   2733   2731   2734   2736     1  0.0000000  0.6508444  3
   2742   2745   2748   2749     1  0.0000000  0.6508444  3
   2742   2745   2748   2750     1  0.0000000  0.6508444  3
   2743   2742   2745   2748     1  0.0000000  0.6508444  3
   2743   2742   2745   2746     1  0.0000000  0.6508444  3
   2743   2742   2745   2747     1  0.0000000  0.6508444  3
   2743   2742   2751   2752     1  0.0000000  0.6508444  3
   2743   2742   2751   2753     1  0.0000000  0.6508444  3
   2743   2742   2751   2755     1  0.0000000  0.6508444  3
   2744   2742   2745   2748     1  0.0000000  0.6508444  3
   2744   2742   2745   2746     1  0.0000000  0.6508444  3
   2744   2742   2745   2747     1  0.0000000  0.6508444  3
   2744   2742   2751   2752     1  0.0000000  0.6508444  3
   2744   2742   2751   2753     1  0.0000000  0.6508444  3
   2744   2742   2751   2755     1  0.0000000  0.6508444  3
   2745   2742   2751   2752     1  0.0000000  0.6508444  3
   2745   2742   2751   2753     1  0.0000000  0.6508444  3
   2745   2742   2751   2755     1  0.0000000  0.6508444  3
   2746   2745   2748   2754     1  0.0000000  1.0460000  1
   2746   2745   2748   2754     1  0.0000000  0.0000000  3
   2746   2745   2748   2749     1  0.0000000  0.6508444  3
   2746   2745   2748   2750     1  0.0000000  0.6508444  3
   2746   2745   2742   2751     1  0.0000000  0.6508444  3
   2747   2745   2748   2754     1  0.0000000  1.0460000  1
   2747   2745   2748   2754     1  0.0000000  0.0000000  3
   2747   2745   2748   2749     1  0.0000000  0.6508444  3
   2747   2745   2748   2750     1  0.0000000  0.6508444  3
   2747   2745   2742   2751     1  0.0000000  0.6508444  3

;[ system ]
;; Name
;Generic title
;
;[ molecules ]
;; Compound       #mols
;system1              1
